                  Welcome to Q-Chem
     A Quantum Leap Into The Future Of Chemistry


 Q-Chem 5.4 (devel), Q-Chem, Inc., Pleasanton, CA (2021)

 E. Epifanovsky,  A. T. B. Gilbert,  Xintian Feng,  Joonho Lee,  Yuezhi Mao,  
 N. Mardirossian,  P. Pokhilko,  A. White,  M. Wormit,  M. P. Coons,  
 A. L. Dempwolff,  Zhengting Gan,  D. Hait,  P. R. Horn,  L. D. Jacobson,  
 I. Kaliman,  J. Kussmann,  A. W. Lange,  Ka Un Lao,  D. S. Levine,  Jie Liu,  
 S. C. McKenzie,  A. F. Morrison,  K. Nanda,  F. Plasser,  D. R. Rehn,  
 M. L. Vidal,  Zhi-Qiang You,  B. Alam,  B. Albrecht,  A. Aldossary,  
 E. Alguire,  J. H. Andersen,  D. Barton,  K. Begam,  A. Behn,  
 Y. A. Bernard,  E. J. Berquist,  H. Burton,  A. Carreras,  K. Carter-Fenk,  
 R. Chakraborty,  A. Chien,  K. D. Closser,  V. Cofer-Shabica,  S. Dasgupta,  
 Jia Deng,  M. Diedenhofen,  Hainam Do,  S. Ehlert,  Po-Tung Fang,  
 S. Fatehi,  Qingguo Feng,  J. Gayvert,  Qinghui Ge,  G. Gidofalvi,  
 M. Goldey,  J. Gomes,  C. Gonzalez-Espinoza,  S. Gulania,  A. Gunina,  
 M. W. D. Hanson-Heine,  P. H. P. Harbach,  A. W. Hauser,  M. F. Herbst,  
 M. Hernandez Vera,  M. Hodecker,  Z. C. Holden,  S. Houck,  Xunkun Huang,  
 Kerwin Hui,  B. C. Huynh,  M. Ivanov,  Hyunjun Ji,  Hanjie Jiang,  B. Kaduk,  
 S. Kaehler,  K. Khistyaev,  Jaehoon Kim,  P. Klunzinger,  Z. Koczor-Benda,  
 Joong Hoon Koh,  D. Kosenkov,  L. Koulias,  T. Kowalczyk,  C. M. Krauter,  
 K. Kue,  A. Kunitsa,  T. Kus,  A. Landau,  K. V. Lawler,  D. Lefrancois,  
 S. Lehtola,  Rain Li,  Yi-Pei Li,  Jiashu Liang,  M. Liebenthal,  
 Hung-Hsuan Lin,  You-Sheng Lin,  Fenglai Liu,  Kuan-Yu Liu,  
 M. Loipersberger,  A. Luenser,  A. Manjanath,  P. Manohar,  E. Mansoor,  
 S. F. Manzer,  Shan-Ping Mao,  A. V. Marenich,  T. Markovich,  S. Mason,  
 S. A. Maurer,  P. F. McLaughlin,  M. F. S. J. Menger,  J.-M. Mewes,  
 S. A. Mewes,  P. Morgante,  J. W. Mullinax,  T. S. Nguyen-Beck,  
 K. J. Oosterbaan,  G. Paran,  Alexander C. Paul,  Suranjan K. Paul,  
 F. Pavosevic,  Zheng Pei,  S. Prager,  E. I. Proynov,  E. Ramos,  B. Rana,  
 A. E. Rask,  A. Rettig,  R. M. Richard,  F. Rob,  E. Rossomme,  T. Scheele,  
 M. Scheurer,  M. Schneider,  N. Sergueev,  S. M. Sharada,  W. Skomorowski,  
 D. W. Small,  E. J. Sundstrom,  T. Stauch,  C. J. Stein,  Yu-Chuan Su,  
 S. P. Veccham,  Zhen Tao,  T. Tsuchimochi,  N. M. Tubman,  O. Vydrov,  
 J. Wenzel,  M. de Wergifosse,  J. Witte,  A. Yamada,  K. Yao,  S. Yeganeh,  
 S. R. Yost,  A. Zech,  Igor Ying Zhang,  Xing Zhang,  Yu Zhang,  Ying Zhu,  
 D. Zuev,  A. Aspuru-Guzik,  A. T. Bell,  N. A. Besley,  K. B. Bravaya,  
 B. R. Brooks,  D. Casanova,  Jeng-Da Chai,  S. Coriani,  C. J. Cramer,  
 A. E. DePrince, III,  R. A. DiStasio Jr.,  A. Dreuw,  B. D. Dunietz,  
 T. R. Furlani,  W. A. Goddard III,  S. Grimme,  S. Hammes-Schiffer,  
 T. Head-Gordon,  W. J. Hehre,  Chao-Ping Hsu,  T.-C. Jagau,  Yousung Jung,  
 A. Klamt,  Jing Kong,  D. S. Lambrecht,  WanZhen Liang,  N. J. Mayhall,  
 C. W. McCurdy,  J. B. Neaton,  C. Ochsenfeld,  J. A. Parkhill,  R. Peverati,  
 V. A. Rassolov,  Yihan Shao,  L. V. Slipchenko,  R. P. Steele,  
 J. E. Subotnik,  A. J. W. Thom,  A. Tkatchenko,  D. G. Truhlar,  
 T. Van Voorhis,  T. A. Wesolowski,  K. B. Whaley,  H. L. Woodcock III,  
 P. M. Zimmerman,  S. Faraji,  P. M. W. Gill,  M. Head-GordonJ. M. Herbert,  
 A. I. Krylov

 Contributors to earlier versions of Q-Chem not listed above: 
 R. D. Adamson,  B. Austin,  R. Baer,  J. Baker,  G. J. O. Beran,  
 K. Brandhorst,  S. T. Brown,  E. F. C. Byrd,  A. K. Chakraborty,  
 G. K. L. Chan,  Chun-Min Chang,  Yunqing Chen,  C.-L. Cheng,  
 Siu Hung Chien,  D. M. Chipman,  D. L. Crittenden,  H. Dachsel,  
 R. J. Doerksen,  A. D. Dutoi,  R. G. Edgar,  J. Fosso-Tande,  
 L. Fusti-Molnar,  D. Ghosh,  A. Ghysels,  A. Golubeva-Zadorozhnaya,  
 J. Gonthier,  M. S. Gordon,  S. R. Gwaltney,  G. Hawkins,  J. E. Herr,  
 A. Heyden,  S. Hirata,  E. G. Hohenstein,  G. Kedziora,  F. J. Keil,  
 C. Kelley,  Jihan Kim,  R. A. King,  R. Z. Khaliullin,  P. P. Korambath,  
 W. Kurlancheek,  A. Laurent,  A. M. Lee,  M. S. Lee,  S. V. Levchenko,  
 Ching Yeh Lin,  D. Liotard,  E. Livshits,  R. C. Lochan,  I. Lotan,  
 L. A. Martinez-Martinez,  P. E. Maslen,  N. Nair,  D. P. O'Neill,  
 D. Neuhauser,  E. Neuscamman,  C. M. Oana,  R. Olivares-Amaya,  R. Olson,  
 T. M. Perrine,  B. Peters,  P. A. Pieniazek,  A. Prociuk,  Y. M. Rhee,  
 J. Ritchie,  M. A. Rohrdanz,  E. Rosta,  N. J. Russ,  H. F. Schaefer III,  
 M. W. Schmidt,  N. E. Schultz,  S. Sharma,  N. Shenvi,  C. D. Sherrill,  
 A. C. Simmonett,  A. Sodt,  T. Stein,  D. Stuck,  K. S. Thanthiriwatte,  
 V. Vanovschi,  L. Vogt,  Tao Wang,  A. Warshel,  M. A. Watson,  
 C. F. Williams,  Q. Wu,  X. Xu,  Jun Yang,  W. Zhang,  Yan Zhao

 Please cite Q-Chem as follows:
 Y. Shao et al., Mol. Phys. 113, 184-215 (2015)
 DOI: 10.1080/00268976.2014.952696

 Q-Chem 5.4.0 for Intel X86 EM64T Linux

 Parts of Q-Chem use Armadillo 9.800.1 (Horizon Scraper).
 http://arma.sourceforge.net/

 Q-Chem begins on Sat May 15 15:14:00 2021  

Host: Console
0

     Scratch files written to /public/home/huangxk/scratch/huangxk/qchem11818//
Processing $rem in /public/home/huangxk/qchem/config/preferences:
Processing $rem in /public/home/huangxk/.qchemrc:

Checking the input file for inconsistencies... 	...done.

--------------------------------------------------------------
User input:
--------------------------------------------------------------
$molecule
0 2
 C                 -0.40021931    0.00000000    0.00000000
 H                  0.13386282   -0.92717651    0.00000000
 H                 -1.47021879    0.00105956    0.00000000
 H                  0.13569803    0.92611695    0.00000000
$end

$rem
method b3lyp
basis def2-SVP
cis_n_roots 10
$end
--------------------------------------------------------------
 ----------------------------------------------------------------
             Standard Nuclear Orientation (Angstroms)
    I     Atom           X                Y                Z
 ----------------------------------------------------------------
    1      C       0.0000000006    -0.0000000010     0.0000000000
    2      H       1.0700000016    -0.0000000000    -0.0000000000
    3      H      -0.5350000002     0.9266471860    -0.0000000000
    4      H      -0.5350000047    -0.9266471802     0.0000000000
 ----------------------------------------------------------------
 Molecular Point Group                 D3h   NOp = 12
 Largest Abelian Subgroup              C2v   NOp =  4
 Nuclear Repulsion Energy =           9.75864635 hartrees
 There are        5 alpha and        4 beta electrons

 Q-Chem warning in module /public/home/huangxk/qchem/libsym/snoman.F, line  324:

 turning symmetry off for DFT job

 Requested basis set is def2-SVP
 There are 15 shells and 29 basis functions

 Total QAlloc Memory Limit   2000 MB
 Mega-Array Size       188 MB
 MEM_STATIC part       192 MB

                       Distance Matrix (Angstroms)
             C (  1)   H (  2)   H (  3)
   H (  2)  1.070000
   H (  3)  1.070000  1.853294
   H (  4)  1.070000  1.853294  1.853294

 A cutoff of  1.0D-11 yielded    120 shell pairs
 There are       460 function pairs (       495 Cartesian)
 Smallest overlap matrix eigenvalue = 2.15E-02

 Scale SEOQF with 1.000000e+00/1.000000e+00/1.000000e+00

 Standard Electronic Orientation quadrupole field applied
 Nucleus-field energy     =     0.0000000018 hartrees
 Guess from superposition of atomic densities
 Warning:  Energy on first SCF cycle will be non-variational
 SAD guess density has 9.000000 electrons

 -----------------------------------------------------------------------
  General SCF calculation program by
  Eric Jon Sundstrom, Paul Horn, Yuezhi Mao, Dmitri Zuev, Alec White,
  David Stuck, Shaama M.S., Shane Yost, Joonho Lee, David Small,
  Daniel Levine, Susi Lehtola, Hugh Burton, Evgeny Epifanovsky,
  Bang C. Huynh
 -----------------------------------------------------------------------
 Exchange:     0.2000 Hartree-Fock + 0.0800 Slater + 0.7200 B88
 Correlation:  0.1900 VWN1RPA + 0.8100 LYP
 Using SG-1 standard quadrature grid
 A unrestricted SCF calculation will be
 performed using DIIS
 SCF converges when DIIS error is below 1.0e-08
 ---------------------------------------
  Cycle       Energy         DIIS error
 ---------------------------------------
    1     -39.7273278959      4.72e-02  
    2     -39.7787703510      7.67e-03  
    3     -39.7859849443      6.82e-03  
    4     -39.8084750630      2.09e-04  
    5     -39.8085222391      5.34e-05  
    6     -39.8085260784      7.21e-06  
    7     -39.8085261481      6.38e-07  
    8     -39.8085261485      6.23e-08  
    9     -39.8085261485      4.23e-09  Convergence criterion met
 ---------------------------------------
 SCF time:   CPU 2.10s  wall 2.00s 
<S^2> =          0.753405806
 SCF   energy in the final basis set =      -39.8085261485
 Total energy in the final basis set =      -39.8085261485

 Direct TDDFT/TDA calculation will be performed
 Exchange:     0.2000 Hartree-Fock + 0.0800 Slater + 0.7200 B88
 Correlation:  0.1900 VWN1RPA + 0.8100 LYP
 Using SG-1 standard quadrature grid
 CIS energy converged when residual is below 10e- 6
 NRoots was altered as: 10 --> 11
 ---------------------------------------------------
 Iter    Rts Conv    Rts Left    Ttl Dev     Max Dev
 ---------------------------------------------------
   1         0          11      0.037212    0.007790
   2         0          11      0.010977    0.004240
   3         0          11      0.005847    0.002930
   4         4           7      0.001021    0.000472
   5         6           5      0.000322    0.000255
   6         9           2      0.000049    0.000043
   7        10           1      0.000007    0.000004
   8        11           0      0.000003    0.000001    Roots Converged
 ---------------------------------------------------

 ---------------------------------------------------
         TDDFT/TDA Excitation Energies              
 ---------------------------------------------------

 Excited state   1: excitation energy (eV) =    6.9864
 Total energy for state  1:                   -39.55178233 au
    <S**2>     :  0.7526
    Trans. Mom.: -0.0000 X   0.0000 Y   0.1451 Z
    Strength   :     0.0036012718
    S(    1) --> V(    1) amplitude =  0.9938 alpha

 Excited state   2: excitation energy (eV) =    7.0700
 Total energy for state  2:                   -39.54870960 au
    <S**2>     :  0.7564
    Trans. Mom.: -0.0000 X  -0.0000 Y   0.0000 Z
    Strength   :     0.0000000000
    D(    4) --> S(    1) amplitude =  0.9882 beta

 Excited state   3: excitation energy (eV) =    7.0702
 Total energy for state  3:                   -39.54869926 au
    <S**2>     :  0.7564
    Trans. Mom.: -0.0000 X   0.0000 Y  -0.0000 Z
    Strength   :     0.0000000001
    D(    3) --> S(    1) amplitude =  0.9882 beta

 Excited state   4: excitation energy (eV) =    8.5506
 Total energy for state  4:                   -39.49429898 au
    <S**2>     :  0.7538
    Trans. Mom.:  0.0000 X  -0.0000 Y  -0.0000 Z
    Strength   :     0.0000000001
    S(    1) --> V(    2) amplitude =  0.9884 alpha

 Excited state   5: excitation energy (eV) =    8.5508
 Total energy for state  5:                   -39.49428826 au
    <S**2>     :  0.7538
    Trans. Mom.:  0.0000 X   0.0000 Y  -0.0000 Z
    Strength   :     0.0000000000
    S(    1) --> V(    3) amplitude =  0.9884 alpha

 Excited state   6: excitation energy (eV) =   11.5469
 Total energy for state  6:                   -39.38418512 au
    <S**2>     :  2.7499
    Trans. Mom.: -0.0001 X   0.0148 Y   0.0000 Z
    Strength   :     0.0000619665
    D(    3) --> V(    1) amplitude =  0.6815 alpha
    D(    4) --> V(    1) amplitude =  0.6811 beta

 Excited state   7: excitation energy (eV) =   11.5469
 Total energy for state  7:                   -39.38418498 au
    <S**2>     :  2.7499
    Trans. Mom.: -0.0147 X  -0.0001 Y  -0.0000 Z
    Strength   :     0.0000613619
    D(    4) --> V(    1) amplitude =  0.6815 alpha
    D(    3) --> V(    1) amplitude =  0.6811 beta

 Excited state   8: excitation energy (eV) =   12.5507
 Total energy for state  8:                   -39.34729654 au
    <S**2>     :  0.7541
    Trans. Mom.: -0.8867 X   0.0007 Y   0.0000 Z
    Strength   :     0.2417385979
    D(    4) --> V(    1) amplitude = -0.6999 alpha
    D(    3) --> V(    1) amplitude =  0.7079 beta

 Excited state   9: excitation energy (eV) =   12.5507
 Total energy for state  9:                   -39.34729615 au
    <S**2>     :  0.7541
    Trans. Mom.:  0.0007 X   0.8866 Y   0.0000 Z
    Strength   :     0.2417213700
    D(    3) --> V(    1) amplitude = -0.6999 alpha
    D(    4) --> V(    1) amplitude =  0.7078 beta

 Excited state  10: excitation energy (eV) =   12.6106
 Total energy for state 10:                   -39.34509536 au
    <S**2>     :  2.7417
    Trans. Mom.: -0.0003 X   0.0000 Y   0.0000 Z
    Strength   :     0.0000000259
    D(    3) --> V(    3) amplitude = -0.4669 alpha
    D(    4) --> V(    2) amplitude =  0.4671 alpha
    D(    3) --> V(    2) amplitude =  0.5147 beta
    D(    4) --> V(    3) amplitude = -0.5145 beta

 Excited state  11: excitation energy (eV) =   13.2527
 Total energy for state 11:                   -39.32149873 au
    <S**2>     :  2.7385
    Trans. Mom.: -0.0000 X   0.1149 Y  -0.0000 Z
    Strength   :     0.0042838507
    D(    3) --> V(    1) amplitude = -0.1912 alpha
    D(    3) --> V(    2) amplitude = -0.4421 alpha
    D(    4) --> V(    3) amplitude =  0.4418 alpha
    D(    3) --> V(    3) amplitude =  0.5199 beta
    D(    4) --> V(    1) amplitude = -0.1597 beta
    D(    4) --> V(    2) amplitude = -0.5205 beta

 ---------------------------------------------------
  SETman timing summary (seconds)
  CPU time                 4.16s
  System time              0.00s
  Wall time                4.20s

 --------------------------------------------------------------
             Orbital Energies (a.u.) and Symmetries
 --------------------------------------------------------------

 Alpha MOs, Unrestricted
 -- Occupied --                  
-10.195  -0.680  -0.422  -0.422  -0.232
  1 A1'   2 A1'   1 E'    1 E'    1 A2"                                        
 -- Virtual --                   
  0.081   0.145   0.145   0.440   0.440   0.468   0.477   0.644
  3 A1'   2 E'    2 E'    3 E'    3 E'    4 A1'   2 A2"   5 A1'                
  0.693   0.693   1.193   1.193   1.484   1.611   1.611   1.738
  4 E'    4 E'    1 E"    1 E"    1 A2'   5 E'    5 E'    3 A2"                
  1.831   2.226   2.226   2.259   2.259   2.878   2.935   2.935
  6 A1'   2 E"    2 E"    6 E'    6 E'    7 A1'   7 E'    7 E'                 

 Beta MOs, Unrestricted
 -- Occupied --                  
-10.180  -0.640  -0.412  -0.412
  1 A1'   2 A1'   1 E'    1 E'                                                 
 -- Virtual --                   
 -0.061   0.091   0.149   0.149   0.444   0.444   0.495   0.552
  1 A2"   3 A1'   2 E'    2 E'    3 E'    3 E'    4 A1'   2 A2"                
  0.668   0.701   0.701   1.222   1.222   1.480   1.613   1.613
  5 A1'   4 E'    4 E'    1 E"    1 E"    1 A2'   5 E'    5 E'                 
  1.750   1.906   2.262   2.262   2.276   2.276   2.893   2.945
  3 A2"   6 A1'   6 E'    6 E'    2 E"    2 E"    7 A1'   7 E'                 
  2.945
  7 E'                                                                         
 --------------------------------------------------------------

          Ground-State Mulliken Net Atomic Charges

     Atom                 Charge (a.u.)    Spin (a.u.)
  --------------------------------------------------------
      1 C                    -0.159293       1.137669
      2 H                     0.053085      -0.045892
      3 H                     0.053104      -0.045889
      4 H                     0.053104      -0.045889
  --------------------------------------------------------
  Sum of atomic charges =     0.000000
  Sum of spin   charges =     1.000000

 -----------------------------------------------------------------
                    Cartesian Multipole Moments
 -----------------------------------------------------------------
    Charge (ESU x 10^10)
                -0.0000
    Dipole Moment (Debye)
         X      -0.0000      Y       0.0000      Z       0.0000
       Tot       0.0000
    Quadrupole Moments (Debye-Ang)
        XX      -7.1250     XY       0.0000     YY      -7.1249
        XZ       0.0000     YZ      -0.0000     ZZ      -8.6120
    Octopole Moments (Debye-Ang^2)
       XXX       0.7003    XXY      -0.0000    XYY      -0.7005
       YYY       0.0000    XXZ       0.0000    XYZ       0.0000
       YYZ       0.0000    XZZ      -0.0000    YZZ      -0.0000
       ZZZ       0.0000
    Hexadecapole Moments (Debye-Ang^3)
      XXXX     -14.1426   XXXY       0.0000   XXYY      -4.7142
      XYYY       0.0000   YYYY     -14.1424   XXXZ       0.0000
      XXYZ      -0.0000   XYYZ       0.0000   YYYZ      -0.0000
      XXZZ      -4.2217   XYZZ       0.0000   YYZZ      -4.2216
      XZZZ       0.0000   YZZZ      -0.0000   ZZZZ      -9.2613
 -----------------------------------------------------------------
 Total job time:  6.96s(wall), 6.38s(cpu) 
 Sat May 15 15:14:07 2021

        *************************************************************
        *                                                           *
        *  Thank you very much for using Q-Chem.  Have a nice day.  *
        *                                                           *
        *************************************************************


