                  Welcome to Q-Chem
     A Quantum Leap Into The Future Of Chemistry


 Q-Chem 5.4 (devel), Q-Chem, Inc., Pleasanton, CA (2021)

 E. Epifanovsky,  A. T. B. Gilbert,  Xintian Feng,  Joonho Lee,  Yuezhi Mao,  
 N. Mardirossian,  P. Pokhilko,  A. White,  M. Wormit,  M. P. Coons,  
 A. L. Dempwolff,  Zhengting Gan,  D. Hait,  P. R. Horn,  L. D. Jacobson,  
 I. Kaliman,  J. Kussmann,  A. W. Lange,  Ka Un Lao,  D. S. Levine,  Jie Liu,  
 S. C. McKenzie,  A. F. Morrison,  K. Nanda,  F. Plasser,  D. R. Rehn,  
 M. L. Vidal,  Zhi-Qiang You,  B. Alam,  B. Albrecht,  A. Aldossary,  
 E. Alguire,  J. H. Andersen,  D. Barton,  K. Begam,  A. Behn,  
 Y. A. Bernard,  E. J. Berquist,  H. Burton,  A. Carreras,  K. Carter-Fenk,  
 R. Chakraborty,  A. Chien,  K. D. Closser,  V. Cofer-Shabica,  S. Dasgupta,  
 Jia Deng,  M. Diedenhofen,  Hainam Do,  S. Ehlert,  Po-Tung Fang,  
 S. Fatehi,  Qingguo Feng,  J. Gayvert,  Qinghui Ge,  G. Gidofalvi,  
 M. Goldey,  J. Gomes,  C. Gonzalez-Espinoza,  S. Gulania,  A. Gunina,  
 M. W. D. Hanson-Heine,  P. H. P. Harbach,  A. W. Hauser,  M. F. Herbst,  
 M. Hernandez Vera,  M. Hodecker,  Z. C. Holden,  S. Houck,  Xunkun Huang,  
 Kerwin Hui,  B. C. Huynh,  M. Ivanov,  Hyunjun Ji,  Hanjie Jiang,  B. Kaduk,  
 S. Kaehler,  K. Khistyaev,  Jaehoon Kim,  P. Klunzinger,  Z. Koczor-Benda,  
 Joong Hoon Koh,  D. Kosenkov,  L. Koulias,  T. Kowalczyk,  C. M. Krauter,  
 K. Kue,  A. Kunitsa,  T. Kus,  A. Landau,  K. V. Lawler,  D. Lefrancois,  
 S. Lehtola,  Rain Li,  Yi-Pei Li,  Jiashu Liang,  M. Liebenthal,  
 Hung-Hsuan Lin,  You-Sheng Lin,  Fenglai Liu,  Kuan-Yu Liu,  
 M. Loipersberger,  A. Luenser,  A. Manjanath,  P. Manohar,  E. Mansoor,  
 S. F. Manzer,  Shan-Ping Mao,  A. V. Marenich,  T. Markovich,  S. Mason,  
 S. A. Maurer,  P. F. McLaughlin,  M. F. S. J. Menger,  J.-M. Mewes,  
 S. A. Mewes,  P. Morgante,  J. W. Mullinax,  T. S. Nguyen-Beck,  
 K. J. Oosterbaan,  G. Paran,  Alexander C. Paul,  Suranjan K. Paul,  
 F. Pavosevic,  Zheng Pei,  S. Prager,  E. I. Proynov,  E. Ramos,  B. Rana,  
 A. E. Rask,  A. Rettig,  R. M. Richard,  F. Rob,  E. Rossomme,  T. Scheele,  
 M. Scheurer,  M. Schneider,  N. Sergueev,  S. M. Sharada,  W. Skomorowski,  
 D. W. Small,  E. J. Sundstrom,  T. Stauch,  C. J. Stein,  Yu-Chuan Su,  
 S. P. Veccham,  Zhen Tao,  T. Tsuchimochi,  N. M. Tubman,  O. Vydrov,  
 J. Wenzel,  M. de Wergifosse,  J. Witte,  A. Yamada,  K. Yao,  S. Yeganeh,  
 S. R. Yost,  A. Zech,  Igor Ying Zhang,  Xing Zhang,  Yu Zhang,  Ying Zhu,  
 D. Zuev,  A. Aspuru-Guzik,  A. T. Bell,  N. A. Besley,  K. B. Bravaya,  
 B. R. Brooks,  D. Casanova,  Jeng-Da Chai,  S. Coriani,  C. J. Cramer,  
 A. E. DePrince, III,  R. A. DiStasio Jr.,  A. Dreuw,  B. D. Dunietz,  
 T. R. Furlani,  W. A. Goddard III,  S. Grimme,  S. Hammes-Schiffer,  
 T. Head-Gordon,  W. J. Hehre,  Chao-Ping Hsu,  T.-C. Jagau,  Yousung Jung,  
 A. Klamt,  Jing Kong,  D. S. Lambrecht,  WanZhen Liang,  N. J. Mayhall,  
 C. W. McCurdy,  J. B. Neaton,  C. Ochsenfeld,  J. A. Parkhill,  R. Peverati,  
 V. A. Rassolov,  Yihan Shao,  L. V. Slipchenko,  R. P. Steele,  
 J. E. Subotnik,  A. J. W. Thom,  A. Tkatchenko,  D. G. Truhlar,  
 T. Van Voorhis,  T. A. Wesolowski,  K. B. Whaley,  H. L. Woodcock III,  
 P. M. Zimmerman,  S. Faraji,  P. M. W. Gill,  M. Head-GordonJ. M. Herbert,  
 A. I. Krylov

 Contributors to earlier versions of Q-Chem not listed above: 
 R. D. Adamson,  B. Austin,  R. Baer,  J. Baker,  G. J. O. Beran,  
 K. Brandhorst,  S. T. Brown,  E. F. C. Byrd,  A. K. Chakraborty,  
 G. K. L. Chan,  Chun-Min Chang,  Yunqing Chen,  C.-L. Cheng,  
 Siu Hung Chien,  D. M. Chipman,  D. L. Crittenden,  H. Dachsel,  
 R. J. Doerksen,  A. D. Dutoi,  R. G. Edgar,  J. Fosso-Tande,  
 L. Fusti-Molnar,  D. Ghosh,  A. Ghysels,  A. Golubeva-Zadorozhnaya,  
 J. Gonthier,  M. S. Gordon,  S. R. Gwaltney,  G. Hawkins,  J. E. Herr,  
 A. Heyden,  S. Hirata,  E. G. Hohenstein,  G. Kedziora,  F. J. Keil,  
 C. Kelley,  Jihan Kim,  R. A. King,  R. Z. Khaliullin,  P. P. Korambath,  
 W. Kurlancheek,  A. Laurent,  A. M. Lee,  M. S. Lee,  S. V. Levchenko,  
 Ching Yeh Lin,  D. Liotard,  E. Livshits,  R. C. Lochan,  I. Lotan,  
 L. A. Martinez-Martinez,  P. E. Maslen,  N. Nair,  D. P. O'Neill,  
 D. Neuhauser,  E. Neuscamman,  C. M. Oana,  R. Olivares-Amaya,  R. Olson,  
 T. M. Perrine,  B. Peters,  P. A. Pieniazek,  A. Prociuk,  Y. M. Rhee,  
 J. Ritchie,  M. A. Rohrdanz,  E. Rosta,  N. J. Russ,  H. F. Schaefer III,  
 M. W. Schmidt,  N. E. Schultz,  S. Sharma,  N. Shenvi,  C. D. Sherrill,  
 A. C. Simmonett,  A. Sodt,  T. Stein,  D. Stuck,  K. S. Thanthiriwatte,  
 V. Vanovschi,  L. Vogt,  Tao Wang,  A. Warshel,  M. A. Watson,  
 C. F. Williams,  Q. Wu,  X. Xu,  Jun Yang,  W. Zhang,  Yan Zhao

 Please cite Q-Chem as follows:
 Y. Shao et al., Mol. Phys. 113, 184-215 (2015)
 DOI: 10.1080/00268976.2014.952696

 Q-Chem 5.4.0 for Intel X86 EM64T Linux

 Parts of Q-Chem use Armadillo 9.800.1 (Horizon Scraper).
 http://arma.sourceforge.net/

 Q-Chem begins on Thu Apr 29 16:11:30 2021  

Host: Console
0

     Scratch files written to /public/home/huangxk/scratch/huangxk/qchem24549//
Processing $rem in /public/home/huangxk/qchem/config/preferences:
Processing $rem in /public/home/huangxk/.qchemrc:

Checking the input file for inconsistencies... 	...done.

--------------------------------------------------------------
User input:
--------------------------------------------------------------
$molecule
0 1
O
H 1 1.
H 1 1. 2 105.
$end

$rem
method pbe0
basis def2-SV(P)
cis_n_roots 5
rpa 2
max_cis_cycles 60
cis_ampl_print -1
calc_soc true
$end

--------------------------------------------------------------
 ----------------------------------------------------------------
             Standard Nuclear Orientation (Angstroms)
    I     Atom           X                Y                Z
 ----------------------------------------------------------------
    1      O      -0.0000000000     0.0000000000     0.1217522858
    2      H      -0.7933533403    -0.0000000000    -0.4870091432
    3      H       0.7933533403    -0.0000000000    -0.4870091432
 ----------------------------------------------------------------
 Molecular Point Group                 C2v   NOp =  4
 Largest Abelian Subgroup              C2v   NOp =  4
 Nuclear Repulsion Energy =           8.80034201 hartrees
 There are        5 alpha and        5 beta electrons
 Requested basis set is def2-SV(P)
 There are 10 shells and 18 basis functions

 Total QAlloc Memory Limit   2000 MB
 Mega-Array Size       188 MB
 MEM_STATIC part       192 MB

                       Distance Matrix (Angstroms)
             O (  1)   H (  2)
   H (  2)  1.000000
   H (  3)  1.000000  1.586707

 A cutoff of  1.0D-11 yielded     55 shell pairs
 There are       187 function pairs (       211 Cartesian)
 Smallest overlap matrix eigenvalue = 6.52E-02

 Scale SEOQF with 1.000000e+00/1.000000e+00/1.000000e+00

 Standard Electronic Orientation quadrupole field applied
 Nucleus-field energy     =    -0.0000000002 hartrees
 Guess from superposition of atomic densities
 Warning:  Energy on first SCF cycle will be non-variational
 SAD guess density has 10.000000 electrons

 -----------------------------------------------------------------------
  General SCF calculation program by
  Eric Jon Sundstrom, Paul Horn, Yuezhi Mao, Dmitri Zuev, Alec White,
  David Stuck, Shaama M.S., Shane Yost, Joonho Lee, David Small,
  Daniel Levine, Susi Lehtola, Hugh Burton, Evgeny Epifanovsky,
  Bang C. Huynh
 -----------------------------------------------------------------------
 Exchange:     0.2500 Hartree-Fock + 0.7500 PBE
 Correlation:  1.0000 PBE
 Using SG-1 standard quadrature grid
 using 8 threads for integral computing
 -------------------------------------------------------
 OpenMP Integral computing Module                
 Release: version 1.0, May 2013, Q-Chem Inc. Pittsburgh 
 -------------------------------------------------------
 A restricted SCF calculation will be
 performed using DIIS
 SCF converges when DIIS error is below 1.0e-08
 ---------------------------------------
  Cycle       Energy         DIIS error
 ---------------------------------------
    1     -76.1987283368      1.58e-01  
    2     -76.1925814879      4.41e-02  
    3     -76.1727884189      5.19e-02  
    4     -76.2541185991      1.62e-03  
    5     -76.2541829532      1.62e-04  
    6     -76.2541837118      1.71e-05  
    7     -76.2541837219      6.28e-07  
    8     -76.2541837219      6.75e-08  
    9     -76.2541837219      6.63e-09  Convergence criterion met
 ---------------------------------------
 SCF time:   CPU 2.49s  wall 1.00s 
 SCF   energy in the final basis set =      -76.2541837219
 Total energy in the final basis set =      -76.2541837219

 CIS energy converged when residual is below 10e- 6

 Direct TDDFT calculation will be performed
 Exchange:     0.2500 Hartree-Fock + 0.7500 PBE
 Correlation:  1.0000 PBE
 Using SG-1 standard quadrature grid
 ---------------------------------------------------
 Iter    Rts Conv    Rts Left    Ttl Dev     Max Dev
 ---------------------------------------------------
   1         0           5      0.028456    0.006439
   2         0           5      0.003231    0.001308
   3         0           5      0.000372    0.000246
   4         1           4      0.000061    0.000018
   5         1           4      0.000047    0.000023
   6         1           4      0.000025    0.000009
   7         1           4      0.000065    0.000023
   8         1           4      0.000044    0.000024
   9         4           1      0.000019    0.000017
  10         4           1      0.000014    0.000012
  11         4           1      0.000006    0.000004
  12         5           0      0.000001    0.000001    Roots Converged
 ---------------------------------------------------
 Triplets done: starting singlet calculation
 ---------------------------------------------------
 Iter    Rts Conv    Rts Left    Ttl Dev     Max Dev
 ---------------------------------------------------
  13         0           5      0.032045    0.012233
  14         0           5      0.004036    0.001797
  15         0           5      0.000360    0.000145
  16         0           5      0.000078    0.000044
  17         2           3      0.000045    0.000037
  18         3           2      0.000041    0.000026
  19         4           1      0.000009    0.000006
  20         4           1      0.000004    0.000002
  21         4           1      0.000009    0.000006
  22         4           1      0.000008    0.000005
  23         4           1      0.000004    0.000001
  24         4           1      0.000007    0.000004
  25         4           1      0.000005    0.000003
  26         4           1      0.000007    0.000005
  27         4           1      0.000005    0.000002
  28         4           1      0.000004    0.000001
  29         5           0      0.000003    0.000001    Roots Converged
 ---------------------------------------------------

 ---------------------------------------------------
             TDDFT Excitation Energies              
 ---------------------------------------------------

 Excited state   1: excitation energy (eV) =    6.7454
 Total energy for state  1:                   -76.00629606 au
    Multiplicity: Triplet 
    Trans. Mom.:  0.0000 X   0.0000 Y   0.0000 Z
    Strength   :     0.0000000000
    X: D(    1) --> V(    1) amplitude =  0.0000
    Y: D(    1) --> V(    1) amplitude =  0.0000
    X: D(    1) --> V(    2) amplitude = -0.0000
    Y: D(    1) --> V(    2) amplitude =  0.0000
    X: D(    1) --> V(    3) amplitude =  0.0000
    Y: D(    1) --> V(    3) amplitude = -0.0000
    X: D(    1) --> V(    4) amplitude =  0.0000
    Y: D(    1) --> V(    4) amplitude =  0.0000
    X: D(    1) --> V(    5) amplitude = -0.0003
    Y: D(    1) --> V(    5) amplitude = -0.0001
    X: D(    1) --> V(    6) amplitude = -0.0000
    Y: D(    1) --> V(    6) amplitude = -0.0000
    X: D(    1) --> V(    7) amplitude = -0.0000
    Y: D(    1) --> V(    7) amplitude = -0.0000
    X: D(    1) --> V(    8) amplitude = -0.0000
    Y: D(    1) --> V(    8) amplitude = -0.0000
    X: D(    1) --> V(    9) amplitude = -0.0000
    Y: D(    1) --> V(    9) amplitude =  0.0000
    X: D(    1) --> V(   10) amplitude =  0.0000
    Y: D(    1) --> V(   10) amplitude = -0.0000
    X: D(    1) --> V(   11) amplitude =  0.0002
    Y: D(    1) --> V(   11) amplitude = -0.0003
    X: D(    1) --> V(   12) amplitude = -0.0000
    Y: D(    1) --> V(   12) amplitude = -0.0000
    X: D(    1) --> V(   13) amplitude =  0.0000
    Y: D(    1) --> V(   13) amplitude =  0.0000
    X: D(    2) --> V(    1) amplitude =  0.0000
    Y: D(    2) --> V(    1) amplitude =  0.0000
    X: D(    2) --> V(    2) amplitude =  0.0000
    Y: D(    2) --> V(    2) amplitude =  0.0000
    X: D(    2) --> V(    3) amplitude = -0.0000
    Y: D(    2) --> V(    3) amplitude =  0.0000
    X: D(    2) --> V(    4) amplitude =  0.0000
    Y: D(    2) --> V(    4) amplitude =  0.0000
    X: D(    2) --> V(    5) amplitude = -0.0156
    Y: D(    2) --> V(    5) amplitude = -0.0145
    X: D(    2) --> V(    6) amplitude = -0.0000
    Y: D(    2) --> V(    6) amplitude = -0.0000
    X: D(    2) --> V(    7) amplitude = -0.0000
    Y: D(    2) --> V(    7) amplitude = -0.0000
    X: D(    2) --> V(    8) amplitude = -0.0000
    Y: D(    2) --> V(    8) amplitude = -0.0000
    X: D(    2) --> V(    9) amplitude =  0.0000
    Y: D(    2) --> V(    9) amplitude =  0.0000
    X: D(    2) --> V(   10) amplitude =  0.0000
    Y: D(    2) --> V(   10) amplitude =  0.0000
    X: D(    2) --> V(   11) amplitude =  0.0078
    Y: D(    2) --> V(   11) amplitude =  0.0065
    X: D(    2) --> V(   12) amplitude = -0.0000
    Y: D(    2) --> V(   12) amplitude = -0.0000
    X: D(    2) --> V(   13) amplitude =  0.0000
    Y: D(    2) --> V(   13) amplitude =  0.0000
    X: D(    3) --> V(    1) amplitude =  0.0000
    Y: D(    3) --> V(    1) amplitude =  0.0000
    X: D(    3) --> V(    2) amplitude = -0.0000
    Y: D(    3) --> V(    2) amplitude =  0.0000
    X: D(    3) --> V(    3) amplitude = -0.0000
    Y: D(    3) --> V(    3) amplitude = -0.0000
    X: D(    3) --> V(    4) amplitude = -0.0000
    Y: D(    3) --> V(    4) amplitude =  0.0000
    X: D(    3) --> V(    5) amplitude =  0.0000
    Y: D(    3) --> V(    5) amplitude = -0.0000
    X: D(    3) --> V(    6) amplitude = -0.0000
    Y: D(    3) --> V(    6) amplitude = -0.0000
    X: D(    3) --> V(    7) amplitude = -0.0000
    Y: D(    3) --> V(    7) amplitude = -0.0000
    X: D(    3) --> V(    8) amplitude = -0.0000
    Y: D(    3) --> V(    8) amplitude = -0.0000
    X: D(    3) --> V(    9) amplitude = -0.0000
    Y: D(    3) --> V(    9) amplitude = -0.0000
    X: D(    3) --> V(   10) amplitude = -0.0034
    Y: D(    3) --> V(   10) amplitude = -0.0023
    X: D(    3) --> V(   11) amplitude =  0.0000
    Y: D(    3) --> V(   11) amplitude = -0.0000
    X: D(    3) --> V(   12) amplitude = -0.0000
    Y: D(    3) --> V(   12) amplitude = -0.0000
    X: D(    3) --> V(   13) amplitude = -0.0000
    Y: D(    3) --> V(   13) amplitude =  0.0000
    X: D(    4) --> V(    1) amplitude =  0.0000
    Y: D(    4) --> V(    1) amplitude =  0.0000
    X: D(    4) --> V(    2) amplitude = -0.0000
    Y: D(    4) --> V(    2) amplitude = -0.0000
    X: D(    4) --> V(    3) amplitude =  0.0000
    Y: D(    4) --> V(    3) amplitude =  0.0000
    X: D(    4) --> V(    4) amplitude =  0.0000
    Y: D(    4) --> V(    4) amplitude =  0.0000
    X: D(    4) --> V(    5) amplitude = -0.0027
    Y: D(    4) --> V(    5) amplitude = -0.0094
    X: D(    4) --> V(    6) amplitude =  0.0000
    Y: D(    4) --> V(    6) amplitude =  0.0000
    X: D(    4) --> V(    7) amplitude =  0.0000
    Y: D(    4) --> V(    7) amplitude = -0.0000
    X: D(    4) --> V(    8) amplitude = -0.0000
    Y: D(    4) --> V(    8) amplitude = -0.0000
    X: D(    4) --> V(    9) amplitude = -0.0000
    Y: D(    4) --> V(    9) amplitude = -0.0000
    X: D(    4) --> V(   10) amplitude =  0.0000
    Y: D(    4) --> V(   10) amplitude =  0.0000
    X: D(    4) --> V(   11) amplitude =  0.0011
    Y: D(    4) --> V(   11) amplitude =  0.0010
    X: D(    4) --> V(   12) amplitude =  0.0000
    Y: D(    4) --> V(   12) amplitude =  0.0000
    X: D(    4) --> V(   13) amplitude = -0.0000
    Y: D(    4) --> V(   13) amplitude = -0.0000
    X: D(    5) --> V(    1) amplitude =  0.9975
    Y: D(    5) --> V(    1) amplitude =  0.0296
    X: D(    5) --> V(    2) amplitude = -0.0000
    Y: D(    5) --> V(    2) amplitude = -0.0000
    X: D(    5) --> V(    3) amplitude =  0.0000
    Y: D(    5) --> V(    3) amplitude =  0.0000
    X: D(    5) --> V(    4) amplitude =  0.0698
    Y: D(    5) --> V(    4) amplitude =  0.0140
    X: D(    5) --> V(    5) amplitude = -0.0000
    Y: D(    5) --> V(    5) amplitude = -0.0000
    X: D(    5) --> V(    6) amplitude =  0.0082
    Y: D(    5) --> V(    6) amplitude =  0.0001
    X: D(    5) --> V(    7) amplitude =  0.0000
    Y: D(    5) --> V(    7) amplitude =  0.0000
    X: D(    5) --> V(    8) amplitude = -0.0333
    Y: D(    5) --> V(    8) amplitude = -0.0083
    X: D(    5) --> V(    9) amplitude = -0.0014
    Y: D(    5) --> V(    9) amplitude = -0.0017
    X: D(    5) --> V(   10) amplitude =  0.0000
    Y: D(    5) --> V(   10) amplitude =  0.0000
    X: D(    5) --> V(   11) amplitude = -0.0000
    Y: D(    5) --> V(   11) amplitude =  0.0000
    X: D(    5) --> V(   12) amplitude = -0.0075
    Y: D(    5) --> V(   12) amplitude = -0.0060
    X: D(    5) --> V(   13) amplitude =  0.0000
    Y: D(    5) --> V(   13) amplitude = -0.0000

 Excited state   2: excitation energy (eV) =    7.4978
 Total energy for state  2:                   -75.97864626 au
    Multiplicity: Singlet 
    Trans. Mom.: -0.0000 X   0.2823 Y  -0.0000 Z
    Strength   :     0.0146437451
    X: D(    1) --> V(    1) amplitude =  0.0000
    Y: D(    1) --> V(    1) amplitude = -0.0000
    X: D(    1) --> V(    2) amplitude =  0.0000
    Y: D(    1) --> V(    2) amplitude =  0.0000
    X: D(    1) --> V(    3) amplitude =  0.0000
    Y: D(    1) --> V(    3) amplitude = -0.0000
    X: D(    1) --> V(    4) amplitude =  0.0000
    Y: D(    1) --> V(    4) amplitude = -0.0000
    X: D(    1) --> V(    5) amplitude =  0.0006
    Y: D(    1) --> V(    5) amplitude =  0.0008
    X: D(    1) --> V(    6) amplitude = -0.0000
    Y: D(    1) --> V(    6) amplitude =  0.0000
    X: D(    1) --> V(    7) amplitude = -0.0000
    Y: D(    1) --> V(    7) amplitude =  0.0000
    X: D(    1) --> V(    8) amplitude = -0.0000
    Y: D(    1) --> V(    8) amplitude =  0.0000
    X: D(    1) --> V(    9) amplitude =  0.0000
    Y: D(    1) --> V(    9) amplitude = -0.0000
    X: D(    1) --> V(   10) amplitude =  0.0000
    Y: D(    1) --> V(   10) amplitude =  0.0000
    X: D(    1) --> V(   11) amplitude =  0.0000
    Y: D(    1) --> V(   11) amplitude = -0.0001
    X: D(    1) --> V(   12) amplitude = -0.0000
    Y: D(    1) --> V(   12) amplitude =  0.0000
    X: D(    1) --> V(   13) amplitude =  0.0000
    Y: D(    1) --> V(   13) amplitude = -0.0000
    X: D(    2) --> V(    1) amplitude =  0.0000
    Y: D(    2) --> V(    1) amplitude =  0.0000
    X: D(    2) --> V(    2) amplitude =  0.0000
    Y: D(    2) --> V(    2) amplitude = -0.0000
    X: D(    2) --> V(    3) amplitude =  0.0000
    Y: D(    2) --> V(    3) amplitude = -0.0000
    X: D(    2) --> V(    4) amplitude =  0.0000
    Y: D(    2) --> V(    4) amplitude = -0.0000
    X: D(    2) --> V(    5) amplitude =  0.0069
    Y: D(    2) --> V(    5) amplitude =  0.0057
    X: D(    2) --> V(    6) amplitude = -0.0000
    Y: D(    2) --> V(    6) amplitude =  0.0000
    X: D(    2) --> V(    7) amplitude = -0.0000
    Y: D(    2) --> V(    7) amplitude =  0.0000
    X: D(    2) --> V(    8) amplitude = -0.0000
    Y: D(    2) --> V(    8) amplitude =  0.0000
    X: D(    2) --> V(    9) amplitude =  0.0000
    Y: D(    2) --> V(    9) amplitude = -0.0000
    X: D(    2) --> V(   10) amplitude = -0.0000
    Y: D(    2) --> V(   10) amplitude = -0.0000
    X: D(    2) --> V(   11) amplitude = -0.0044
    Y: D(    2) --> V(   11) amplitude = -0.0013
    X: D(    2) --> V(   12) amplitude =  0.0000
    Y: D(    2) --> V(   12) amplitude = -0.0000
    X: D(    2) --> V(   13) amplitude =  0.0000
    Y: D(    2) --> V(   13) amplitude =  0.0000
    X: D(    3) --> V(    1) amplitude = -0.0000
    Y: D(    3) --> V(    1) amplitude =  0.0000
    X: D(    3) --> V(    2) amplitude =  0.0000
    Y: D(    3) --> V(    2) amplitude = -0.0000
    X: D(    3) --> V(    3) amplitude = -0.0000
    Y: D(    3) --> V(    3) amplitude = -0.0000
    X: D(    3) --> V(    4) amplitude = -0.0000
    Y: D(    3) --> V(    4) amplitude =  0.0000
    X: D(    3) --> V(    5) amplitude =  0.0000
    Y: D(    3) --> V(    5) amplitude = -0.0000
    X: D(    3) --> V(    6) amplitude = -0.0000
    Y: D(    3) --> V(    6) amplitude =  0.0000
    X: D(    3) --> V(    7) amplitude = -0.0000
    Y: D(    3) --> V(    7) amplitude =  0.0000
    X: D(    3) --> V(    8) amplitude =  0.0000
    Y: D(    3) --> V(    8) amplitude = -0.0000
    X: D(    3) --> V(    9) amplitude =  0.0000
    Y: D(    3) --> V(    9) amplitude =  0.0000
    X: D(    3) --> V(   10) amplitude =  0.0071
    Y: D(    3) --> V(   10) amplitude =  0.0060
    X: D(    3) --> V(   11) amplitude = -0.0000
    Y: D(    3) --> V(   11) amplitude = -0.0000
    X: D(    3) --> V(   12) amplitude = -0.0000
    Y: D(    3) --> V(   12) amplitude =  0.0000
    X: D(    3) --> V(   13) amplitude = -0.0000
    Y: D(    3) --> V(   13) amplitude = -0.0000
    X: D(    4) --> V(    1) amplitude =  0.0000
    Y: D(    4) --> V(    1) amplitude =  0.0000
    X: D(    4) --> V(    2) amplitude = -0.0000
    Y: D(    4) --> V(    2) amplitude = -0.0000
    X: D(    4) --> V(    3) amplitude =  0.0000
    Y: D(    4) --> V(    3) amplitude =  0.0000
    X: D(    4) --> V(    4) amplitude =  0.0000
    Y: D(    4) --> V(    4) amplitude = -0.0000
    X: D(    4) --> V(    5) amplitude = -0.0017
    Y: D(    4) --> V(    5) amplitude = -0.0081
    X: D(    4) --> V(    6) amplitude =  0.0000
    Y: D(    4) --> V(    6) amplitude =  0.0000
    X: D(    4) --> V(    7) amplitude =  0.0000
    Y: D(    4) --> V(    7) amplitude =  0.0000
    X: D(    4) --> V(    8) amplitude = -0.0000
    Y: D(    4) --> V(    8) amplitude =  0.0000
    X: D(    4) --> V(    9) amplitude =  0.0000
    Y: D(    4) --> V(    9) amplitude = -0.0000
    X: D(    4) --> V(   10) amplitude = -0.0000
    Y: D(    4) --> V(   10) amplitude = -0.0000
    X: D(    4) --> V(   11) amplitude = -0.0062
    Y: D(    4) --> V(   11) amplitude = -0.0051
    X: D(    4) --> V(   12) amplitude =  0.0000
    Y: D(    4) --> V(   12) amplitude = -0.0000
    X: D(    4) --> V(   13) amplitude =  0.0000
    Y: D(    4) --> V(   13) amplitude = -0.0000
    X: D(    5) --> V(    1) amplitude =  0.9999
    Y: D(    5) --> V(    1) amplitude = -0.0218
    X: D(    5) --> V(    2) amplitude = -0.0000
    Y: D(    5) --> V(    2) amplitude = -0.0000
    X: D(    5) --> V(    3) amplitude =  0.0000
    Y: D(    5) --> V(    3) amplitude = -0.0000
    X: D(    5) --> V(    4) amplitude =  0.0211
    Y: D(    5) --> V(    4) amplitude = -0.0147
    X: D(    5) --> V(    5) amplitude = -0.0000
    Y: D(    5) --> V(    5) amplitude =  0.0000
    X: D(    5) --> V(    6) amplitude =  0.0144
    Y: D(    5) --> V(    6) amplitude =  0.0020
    X: D(    5) --> V(    7) amplitude = -0.0000
    Y: D(    5) --> V(    7) amplitude =  0.0000
    X: D(    5) --> V(    8) amplitude = -0.0168
    Y: D(    5) --> V(    8) amplitude =  0.0010
    X: D(    5) --> V(    9) amplitude =  0.0039
    Y: D(    5) --> V(    9) amplitude =  0.0017
    X: D(    5) --> V(   10) amplitude = -0.0000
    Y: D(    5) --> V(   10) amplitude = -0.0000
    X: D(    5) --> V(   11) amplitude =  0.0000
    Y: D(    5) --> V(   11) amplitude = -0.0000
    X: D(    5) --> V(   12) amplitude =  0.0079
    Y: D(    5) --> V(   12) amplitude =  0.0064
    X: D(    5) --> V(   13) amplitude =  0.0000
    Y: D(    5) --> V(   13) amplitude =  0.0000

 Excited state   3: excitation energy (eV) =    8.6591
 Total energy for state  3:                   -75.93596759 au
    Multiplicity: Triplet 
    Trans. Mom.:  0.0000 X   0.0000 Y   0.0000 Z
    Strength   :     0.0000000000
    X: D(    1) --> V(    1) amplitude =  0.0002
    Y: D(    1) --> V(    1) amplitude = -0.0000
    X: D(    1) --> V(    2) amplitude = -0.0000
    Y: D(    1) --> V(    2) amplitude = -0.0000
    X: D(    1) --> V(    3) amplitude =  0.0000
    Y: D(    1) --> V(    3) amplitude =  0.0000
    X: D(    1) --> V(    4) amplitude =  0.0002
    Y: D(    1) --> V(    4) amplitude =  0.0000
    X: D(    1) --> V(    5) amplitude =  0.0000
    Y: D(    1) --> V(    5) amplitude = -0.0000
    X: D(    1) --> V(    6) amplitude =  0.0000
    Y: D(    1) --> V(    6) amplitude = -0.0000
    X: D(    1) --> V(    7) amplitude = -0.0000
    Y: D(    1) --> V(    7) amplitude = -0.0000
    X: D(    1) --> V(    8) amplitude = -0.0003
    Y: D(    1) --> V(    8) amplitude = -0.0000
    X: D(    1) --> V(    9) amplitude =  0.0002
    Y: D(    1) --> V(    9) amplitude =  0.0000
    X: D(    1) --> V(   10) amplitude =  0.0000
    Y: D(    1) --> V(   10) amplitude =  0.0000
    X: D(    1) --> V(   11) amplitude = -0.0000
    Y: D(    1) --> V(   11) amplitude =  0.0000
    X: D(    1) --> V(   12) amplitude =  0.0001
    Y: D(    1) --> V(   12) amplitude =  0.0000
    X: D(    1) --> V(   13) amplitude = -0.0000
    Y: D(    1) --> V(   13) amplitude = -0.0000
    X: D(    2) --> V(    1) amplitude =  0.0398
    Y: D(    2) --> V(    1) amplitude =  0.0155
    X: D(    2) --> V(    2) amplitude = -0.0000
    Y: D(    2) --> V(    2) amplitude =  0.0000
    X: D(    2) --> V(    3) amplitude =  0.0000
    Y: D(    2) --> V(    3) amplitude = -0.0000
    X: D(    2) --> V(    4) amplitude =  0.0205
    Y: D(    2) --> V(    4) amplitude =  0.0126
    X: D(    2) --> V(    5) amplitude = -0.0000
    Y: D(    2) --> V(    5) amplitude = -0.0000
    X: D(    2) --> V(    6) amplitude =  0.0081
    Y: D(    2) --> V(    6) amplitude =  0.0034
    X: D(    2) --> V(    7) amplitude = -0.0000
    Y: D(    2) --> V(    7) amplitude = -0.0000
    X: D(    2) --> V(    8) amplitude = -0.0069
    Y: D(    2) --> V(    8) amplitude = -0.0047
    X: D(    2) --> V(    9) amplitude =  0.0072
    Y: D(    2) --> V(    9) amplitude =  0.0009
    X: D(    2) --> V(   10) amplitude =  0.0000
    Y: D(    2) --> V(   10) amplitude = -0.0000
    X: D(    2) --> V(   11) amplitude = -0.0000
    Y: D(    2) --> V(   11) amplitude = -0.0000
    X: D(    2) --> V(   12) amplitude =  0.0036
    Y: D(    2) --> V(   12) amplitude =  0.0011
    X: D(    2) --> V(   13) amplitude = -0.0000
    Y: D(    2) --> V(   13) amplitude = -0.0000
    X: D(    3) --> V(    1) amplitude =  0.0000
    Y: D(    3) --> V(    1) amplitude =  0.0000
    X: D(    3) --> V(    2) amplitude = -0.0914
    Y: D(    3) --> V(    2) amplitude = -0.0246
    X: D(    3) --> V(    3) amplitude =  0.0312
    Y: D(    3) --> V(    3) amplitude =  0.0148
    X: D(    3) --> V(    4) amplitude = -0.0000
    Y: D(    3) --> V(    4) amplitude =  0.0000
    X: D(    3) --> V(    5) amplitude =  0.0000
    Y: D(    3) --> V(    5) amplitude =  0.0000
    X: D(    3) --> V(    6) amplitude =  0.0000
    Y: D(    3) --> V(    6) amplitude =  0.0000
    X: D(    3) --> V(    7) amplitude = -0.0066
    Y: D(    3) --> V(    7) amplitude = -0.0035
    X: D(    3) --> V(    8) amplitude = -0.0000
    Y: D(    3) --> V(    8) amplitude =  0.0000
    X: D(    3) --> V(    9) amplitude = -0.0000
    Y: D(    3) --> V(    9) amplitude = -0.0000
    X: D(    3) --> V(   10) amplitude =  0.0000
    Y: D(    3) --> V(   10) amplitude = -0.0000
    X: D(    3) --> V(   11) amplitude = -0.0000
    Y: D(    3) --> V(   11) amplitude =  0.0000
    X: D(    3) --> V(   12) amplitude =  0.0000
    Y: D(    3) --> V(   12) amplitude = -0.0000
    X: D(    3) --> V(   13) amplitude = -0.0046
    Y: D(    3) --> V(   13) amplitude = -0.0017
    X: D(    4) --> V(    1) amplitude =  0.9927
    Y: D(    4) --> V(    1) amplitude =  0.0398
    X: D(    4) --> V(    2) amplitude = -0.0000
    Y: D(    4) --> V(    2) amplitude = -0.0000
    X: D(    4) --> V(    3) amplitude =  0.0000
    Y: D(    4) --> V(    3) amplitude = -0.0000
    X: D(    4) --> V(    4) amplitude =  0.0764
    Y: D(    4) --> V(    4) amplitude =  0.0270
    X: D(    4) --> V(    5) amplitude = -0.0000
    Y: D(    4) --> V(    5) amplitude =  0.0000
    X: D(    4) --> V(    6) amplitude =  0.0163
    Y: D(    4) --> V(    6) amplitude =  0.0085
    X: D(    4) --> V(    7) amplitude = -0.0000
    Y: D(    4) --> V(    7) amplitude =  0.0000
    X: D(    4) --> V(    8) amplitude = -0.0247
    Y: D(    4) --> V(    8) amplitude = -0.0037
    X: D(    4) --> V(    9) amplitude = -0.0003
    Y: D(    4) --> V(    9) amplitude =  0.0005
    X: D(    4) --> V(   10) amplitude = -0.0000
    Y: D(    4) --> V(   10) amplitude = -0.0000
    X: D(    4) --> V(   11) amplitude = -0.0000
    Y: D(    4) --> V(   11) amplitude = -0.0000
    X: D(    4) --> V(   12) amplitude = -0.0009
    Y: D(    4) --> V(   12) amplitude = -0.0003
    X: D(    4) --> V(   13) amplitude =  0.0000
    Y: D(    4) --> V(   13) amplitude = -0.0000
    X: D(    5) --> V(    1) amplitude = -0.0000
    Y: D(    5) --> V(    1) amplitude =  0.0000
    X: D(    5) --> V(    2) amplitude =  0.0000
    Y: D(    5) --> V(    2) amplitude =  0.0000
    X: D(    5) --> V(    3) amplitude = -0.0000
    Y: D(    5) --> V(    3) amplitude = -0.0000
    X: D(    5) --> V(    4) amplitude = -0.0000
    Y: D(    5) --> V(    4) amplitude = -0.0000
    X: D(    5) --> V(    5) amplitude = -0.0015
    Y: D(    5) --> V(    5) amplitude =  0.0016
    X: D(    5) --> V(    6) amplitude = -0.0000
    Y: D(    5) --> V(    6) amplitude =  0.0000
    X: D(    5) --> V(    7) amplitude =  0.0000
    Y: D(    5) --> V(    7) amplitude =  0.0000
    X: D(    5) --> V(    8) amplitude = -0.0000
    Y: D(    5) --> V(    8) amplitude =  0.0000
    X: D(    5) --> V(    9) amplitude =  0.0000
    Y: D(    5) --> V(    9) amplitude =  0.0000
    X: D(    5) --> V(   10) amplitude = -0.0000
    Y: D(    5) --> V(   10) amplitude =  0.0000
    X: D(    5) --> V(   11) amplitude =  0.0023
    Y: D(    5) --> V(   11) amplitude =  0.0019
    X: D(    5) --> V(   12) amplitude = -0.0000
    Y: D(    5) --> V(   12) amplitude = -0.0000
    X: D(    5) --> V(   13) amplitude = -0.0000
    Y: D(    5) --> V(   13) amplitude =  0.0000

 Excited state   4: excitation energy (eV) =    8.8099
 Total energy for state  4:                   -75.93042559 au
    Multiplicity: Triplet 
    Trans. Mom.:  0.0000 X   0.0000 Y   0.0000 Z
    Strength   :     0.0000000000
    X: D(    1) --> V(    1) amplitude = -0.0000
    Y: D(    1) --> V(    1) amplitude =  0.0000
    X: D(    1) --> V(    2) amplitude = -0.0000
    Y: D(    1) --> V(    2) amplitude = -0.0000
    X: D(    1) --> V(    3) amplitude = -0.0000
    Y: D(    1) --> V(    3) amplitude =  0.0000
    X: D(    1) --> V(    4) amplitude = -0.0000
    Y: D(    1) --> V(    4) amplitude =  0.0000
    X: D(    1) --> V(    5) amplitude = -0.0000
    Y: D(    1) --> V(    5) amplitude = -0.0000
    X: D(    1) --> V(    6) amplitude = -0.0000
    Y: D(    1) --> V(    6) amplitude =  0.0000
    X: D(    1) --> V(    7) amplitude = -0.0000
    Y: D(    1) --> V(    7) amplitude =  0.0000
    X: D(    1) --> V(    8) amplitude =  0.0000
    Y: D(    1) --> V(    8) amplitude =  0.0000
    X: D(    1) --> V(    9) amplitude = -0.0000
    Y: D(    1) --> V(    9) amplitude = -0.0000
    X: D(    1) --> V(   10) amplitude =  0.0003
    Y: D(    1) --> V(   10) amplitude =  0.0004
    X: D(    1) --> V(   11) amplitude = -0.0000
    Y: D(    1) --> V(   11) amplitude = -0.0000
    X: D(    1) --> V(   12) amplitude = -0.0000
    Y: D(    1) --> V(   12) amplitude = -0.0000
    X: D(    1) --> V(   13) amplitude =  0.0000
    Y: D(    1) --> V(   13) amplitude = -0.0000
    X: D(    2) --> V(    1) amplitude = -0.0000
    Y: D(    2) --> V(    1) amplitude =  0.0000
    X: D(    2) --> V(    2) amplitude =  0.0000
    Y: D(    2) --> V(    2) amplitude =  0.0000
    X: D(    2) --> V(    3) amplitude = -0.0000
    Y: D(    2) --> V(    3) amplitude =  0.0000
    X: D(    2) --> V(    4) amplitude = -0.0000
    Y: D(    2) --> V(    4) amplitude =  0.0000
    X: D(    2) --> V(    5) amplitude = -0.0000
    Y: D(    2) --> V(    5) amplitude =  0.0000
    X: D(    2) --> V(    6) amplitude = -0.0000
    Y: D(    2) --> V(    6) amplitude =  0.0000
    X: D(    2) --> V(    7) amplitude = -0.0000
    Y: D(    2) --> V(    7) amplitude = -0.0000
    X: D(    2) --> V(    8) amplitude =  0.0000
    Y: D(    2) --> V(    8) amplitude = -0.0000
    X: D(    2) --> V(    9) amplitude = -0.0000
    Y: D(    2) --> V(    9) amplitude =  0.0000
    X: D(    2) --> V(   10) amplitude =  0.0106
    Y: D(    2) --> V(   10) amplitude =  0.0082
    X: D(    2) --> V(   11) amplitude = -0.0000
    Y: D(    2) --> V(   11) amplitude = -0.0000
    X: D(    2) --> V(   12) amplitude = -0.0000
    Y: D(    2) --> V(   12) amplitude = -0.0000
    X: D(    2) --> V(   13) amplitude =  0.0000
    Y: D(    2) --> V(   13) amplitude =  0.0000
    X: D(    3) --> V(    1) amplitude = -0.0000
    Y: D(    3) --> V(    1) amplitude = -0.0000
    X: D(    3) --> V(    2) amplitude =  0.0000
    Y: D(    3) --> V(    2) amplitude =  0.0000
    X: D(    3) --> V(    3) amplitude = -0.0000
    Y: D(    3) --> V(    3) amplitude = -0.0000
    X: D(    3) --> V(    4) amplitude = -0.0000
    Y: D(    3) --> V(    4) amplitude =  0.0000
    X: D(    3) --> V(    5) amplitude =  0.0148
    Y: D(    3) --> V(    5) amplitude =  0.0192
    X: D(    3) --> V(    6) amplitude = -0.0000
    Y: D(    3) --> V(    6) amplitude = -0.0000
    X: D(    3) --> V(    7) amplitude = -0.0000
    Y: D(    3) --> V(    7) amplitude = -0.0000
    X: D(    3) --> V(    8) amplitude =  0.0000
    Y: D(    3) --> V(    8) amplitude =  0.0000
    X: D(    3) --> V(    9) amplitude =  0.0000
    Y: D(    3) --> V(    9) amplitude =  0.0000
    X: D(    3) --> V(   10) amplitude =  0.0000
    Y: D(    3) --> V(   10) amplitude =  0.0000
    X: D(    3) --> V(   11) amplitude =  0.0006
    Y: D(    3) --> V(   11) amplitude =  0.0013
    X: D(    3) --> V(   12) amplitude =  0.0000
    Y: D(    3) --> V(   12) amplitude = -0.0000
    X: D(    3) --> V(   13) amplitude =  0.0000
    Y: D(    3) --> V(   13) amplitude = -0.0000
    X: D(    4) --> V(    1) amplitude = -0.0000
    Y: D(    4) --> V(    1) amplitude = -0.0000
    X: D(    4) --> V(    2) amplitude = -0.0000
    Y: D(    4) --> V(    2) amplitude =  0.0000
    X: D(    4) --> V(    3) amplitude = -0.0000
    Y: D(    4) --> V(    3) amplitude = -0.0000
    X: D(    4) --> V(    4) amplitude = -0.0000
    Y: D(    4) --> V(    4) amplitude = -0.0000
    X: D(    4) --> V(    5) amplitude =  0.0000
    Y: D(    4) --> V(    5) amplitude =  0.0000
    X: D(    4) --> V(    6) amplitude = -0.0000
    Y: D(    4) --> V(    6) amplitude = -0.0000
    X: D(    4) --> V(    7) amplitude =  0.0000
    Y: D(    4) --> V(    7) amplitude =  0.0000
    X: D(    4) --> V(    8) amplitude =  0.0000
    Y: D(    4) --> V(    8) amplitude = -0.0000
    X: D(    4) --> V(    9) amplitude =  0.0000
    Y: D(    4) --> V(    9) amplitude =  0.0000
    X: D(    4) --> V(   10) amplitude = -0.0061
    Y: D(    4) --> V(   10) amplitude = -0.0057
    X: D(    4) --> V(   11) amplitude =  0.0000
    Y: D(    4) --> V(   11) amplitude =  0.0000
    X: D(    4) --> V(   12) amplitude =  0.0000
    Y: D(    4) --> V(   12) amplitude =  0.0000
    X: D(    4) --> V(   13) amplitude =  0.0000
    Y: D(    4) --> V(   13) amplitude = -0.0000
    X: D(    5) --> V(    1) amplitude =  0.0000
    Y: D(    5) --> V(    1) amplitude = -0.0000
    X: D(    5) --> V(    2) amplitude =  0.9955
    Y: D(    5) --> V(    2) amplitude =  0.0206
    X: D(    5) --> V(    3) amplitude = -0.0863
    Y: D(    5) --> V(    3) amplitude = -0.0098
    X: D(    5) --> V(    4) amplitude =  0.0000
    Y: D(    5) --> V(    4) amplitude =  0.0000
    X: D(    5) --> V(    5) amplitude = -0.0000
    Y: D(    5) --> V(    5) amplitude = -0.0000
    X: D(    5) --> V(    6) amplitude =  0.0000
    Y: D(    5) --> V(    6) amplitude =  0.0000
    X: D(    5) --> V(    7) amplitude =  0.0475
    Y: D(    5) --> V(    7) amplitude =  0.0086
    X: D(    5) --> V(    8) amplitude =  0.0000
    Y: D(    5) --> V(    8) amplitude = -0.0000
    X: D(    5) --> V(    9) amplitude = -0.0000
    Y: D(    5) --> V(    9) amplitude = -0.0000
    X: D(    5) --> V(   10) amplitude =  0.0000
    Y: D(    5) --> V(   10) amplitude = -0.0000
    X: D(    5) --> V(   11) amplitude = -0.0000
    Y: D(    5) --> V(   11) amplitude =  0.0000
    X: D(    5) --> V(   12) amplitude = -0.0000
    Y: D(    5) --> V(   12) amplitude = -0.0000
    X: D(    5) --> V(   13) amplitude = -0.0021
    Y: D(    5) --> V(   13) amplitude = -0.0005

 Excited state   5: excitation energy (eV) =    9.3974
 Total energy for state  5:                   -75.90883404 au
    Multiplicity: Singlet 
    Trans. Mom.: -0.0000 X  -0.0000 Y   0.0000 Z
    Strength   :     0.0000000000
    X: D(    1) --> V(    1) amplitude = -0.0000
    Y: D(    1) --> V(    1) amplitude =  0.0000
    X: D(    1) --> V(    2) amplitude =  0.0000
    Y: D(    1) --> V(    2) amplitude =  0.0000
    X: D(    1) --> V(    3) amplitude = -0.0000
    Y: D(    1) --> V(    3) amplitude = -0.0000
    X: D(    1) --> V(    4) amplitude = -0.0000
    Y: D(    1) --> V(    4) amplitude =  0.0000
    X: D(    1) --> V(    5) amplitude =  0.0000
    Y: D(    1) --> V(    5) amplitude = -0.0000
    X: D(    1) --> V(    6) amplitude =  0.0000
    Y: D(    1) --> V(    6) amplitude =  0.0000
    X: D(    1) --> V(    7) amplitude =  0.0000
    Y: D(    1) --> V(    7) amplitude =  0.0000
    X: D(    1) --> V(    8) amplitude =  0.0000
    Y: D(    1) --> V(    8) amplitude =  0.0000
    X: D(    1) --> V(    9) amplitude =  0.0000
    Y: D(    1) --> V(    9) amplitude =  0.0000
    X: D(    1) --> V(   10) amplitude =  0.0000
    Y: D(    1) --> V(   10) amplitude =  0.0002
    X: D(    1) --> V(   11) amplitude = -0.0000
    Y: D(    1) --> V(   11) amplitude =  0.0000
    X: D(    1) --> V(   12) amplitude =  0.0000
    Y: D(    1) --> V(   12) amplitude = -0.0000
    X: D(    1) --> V(   13) amplitude = -0.0000
    Y: D(    1) --> V(   13) amplitude = -0.0000
    X: D(    2) --> V(    1) amplitude = -0.0000
    Y: D(    2) --> V(    1) amplitude = -0.0000
    X: D(    2) --> V(    2) amplitude = -0.0000
    Y: D(    2) --> V(    2) amplitude = -0.0000
    X: D(    2) --> V(    3) amplitude = -0.0000
    Y: D(    2) --> V(    3) amplitude = -0.0000
    X: D(    2) --> V(    4) amplitude =  0.0000
    Y: D(    2) --> V(    4) amplitude =  0.0000
    X: D(    2) --> V(    5) amplitude =  0.0000
    Y: D(    2) --> V(    5) amplitude =  0.0000
    X: D(    2) --> V(    6) amplitude = -0.0000
    Y: D(    2) --> V(    6) amplitude =  0.0000
    X: D(    2) --> V(    7) amplitude = -0.0000
    Y: D(    2) --> V(    7) amplitude =  0.0000
    X: D(    2) --> V(    8) amplitude =  0.0000
    Y: D(    2) --> V(    8) amplitude =  0.0000
    X: D(    2) --> V(    9) amplitude = -0.0000
    Y: D(    2) --> V(    9) amplitude = -0.0000
    X: D(    2) --> V(   10) amplitude = -0.0045
    Y: D(    2) --> V(   10) amplitude = -0.0042
    X: D(    2) --> V(   11) amplitude =  0.0000
    Y: D(    2) --> V(   11) amplitude = -0.0000
    X: D(    2) --> V(   12) amplitude =  0.0000
    Y: D(    2) --> V(   12) amplitude =  0.0000
    X: D(    2) --> V(   13) amplitude =  0.0000
    Y: D(    2) --> V(   13) amplitude =  0.0000
    X: D(    3) --> V(    1) amplitude =  0.0000
    Y: D(    3) --> V(    1) amplitude =  0.0000
    X: D(    3) --> V(    2) amplitude =  0.0000
    Y: D(    3) --> V(    2) amplitude =  0.0000
    X: D(    3) --> V(    3) amplitude =  0.0000
    Y: D(    3) --> V(    3) amplitude = -0.0000
    X: D(    3) --> V(    4) amplitude =  0.0000
    Y: D(    3) --> V(    4) amplitude =  0.0000
    X: D(    3) --> V(    5) amplitude = -0.0033
    Y: D(    3) --> V(    5) amplitude =  0.0066
    X: D(    3) --> V(    6) amplitude =  0.0000
    Y: D(    3) --> V(    6) amplitude = -0.0000
    X: D(    3) --> V(    7) amplitude =  0.0000
    Y: D(    3) --> V(    7) amplitude = -0.0000
    X: D(    3) --> V(    8) amplitude =  0.0000
    Y: D(    3) --> V(    8) amplitude = -0.0000
    X: D(    3) --> V(    9) amplitude =  0.0000
    Y: D(    3) --> V(    9) amplitude = -0.0000
    X: D(    3) --> V(   10) amplitude =  0.0000
    Y: D(    3) --> V(   10) amplitude = -0.0000
    X: D(    3) --> V(   11) amplitude =  0.0002
    Y: D(    3) --> V(   11) amplitude = -0.0014
    X: D(    3) --> V(   12) amplitude =  0.0000
    Y: D(    3) --> V(   12) amplitude =  0.0000
    X: D(    3) --> V(   13) amplitude =  0.0000
    Y: D(    3) --> V(   13) amplitude = -0.0000
    X: D(    4) --> V(    1) amplitude =  0.0000
    Y: D(    4) --> V(    1) amplitude = -0.0000
    X: D(    4) --> V(    2) amplitude =  0.0000
    Y: D(    4) --> V(    2) amplitude =  0.0000
    X: D(    4) --> V(    3) amplitude =  0.0000
    Y: D(    4) --> V(    3) amplitude =  0.0000
    X: D(    4) --> V(    4) amplitude =  0.0000
    Y: D(    4) --> V(    4) amplitude = -0.0000
    X: D(    4) --> V(    5) amplitude =  0.0000
    Y: D(    4) --> V(    5) amplitude =  0.0000
    X: D(    4) --> V(    6) amplitude =  0.0000
    Y: D(    4) --> V(    6) amplitude =  0.0000
    X: D(    4) --> V(    7) amplitude =  0.0000
    Y: D(    4) --> V(    7) amplitude =  0.0000
    X: D(    4) --> V(    8) amplitude = -0.0000
    Y: D(    4) --> V(    8) amplitude = -0.0000
    X: D(    4) --> V(    9) amplitude =  0.0000
    Y: D(    4) --> V(    9) amplitude =  0.0000
    X: D(    4) --> V(   10) amplitude =  0.0023
    Y: D(    4) --> V(   10) amplitude =  0.0019
    X: D(    4) --> V(   11) amplitude = -0.0000
    Y: D(    4) --> V(   11) amplitude = -0.0000
    X: D(    4) --> V(   12) amplitude = -0.0000
    Y: D(    4) --> V(   12) amplitude = -0.0000
    X: D(    4) --> V(   13) amplitude = -0.0000
    Y: D(    4) --> V(   13) amplitude =  0.0000
    X: D(    5) --> V(    1) amplitude =  0.0000
    Y: D(    5) --> V(    1) amplitude = -0.0000
    X: D(    5) --> V(    2) amplitude =  0.9984
    Y: D(    5) --> V(    2) amplitude = -0.0105
    X: D(    5) --> V(    3) amplitude = -0.0503
    Y: D(    5) --> V(    3) amplitude =  0.0066
    X: D(    5) --> V(    4) amplitude =  0.0000
    Y: D(    5) --> V(    4) amplitude = -0.0000
    X: D(    5) --> V(    5) amplitude =  0.0000
    Y: D(    5) --> V(    5) amplitude = -0.0000
    X: D(    5) --> V(    6) amplitude =  0.0000
    Y: D(    5) --> V(    6) amplitude = -0.0000
    X: D(    5) --> V(    7) amplitude =  0.0303
    Y: D(    5) --> V(    7) amplitude = -0.0027
    X: D(    5) --> V(    8) amplitude =  0.0000
    Y: D(    5) --> V(    8) amplitude = -0.0000
    X: D(    5) --> V(    9) amplitude =  0.0000
    Y: D(    5) --> V(    9) amplitude =  0.0000
    X: D(    5) --> V(   10) amplitude = -0.0000
    Y: D(    5) --> V(   10) amplitude = -0.0000
    X: D(    5) --> V(   11) amplitude =  0.0000
    Y: D(    5) --> V(   11) amplitude = -0.0000
    X: D(    5) --> V(   12) amplitude =  0.0000
    Y: D(    5) --> V(   12) amplitude =  0.0000
    X: D(    5) --> V(   13) amplitude = -0.0015
    Y: D(    5) --> V(   13) amplitude = -0.0001

 Excited state   6: excitation energy (eV) =    9.8701
 Total energy for state  6:                   -75.89146393 au
    Multiplicity: Singlet 
    Trans. Mom.:  0.0000 X  -0.0000 Y  -0.5966 Z
    Strength   :     0.0860795780
    X: D(    1) --> V(    1) amplitude = -0.0000
    Y: D(    1) --> V(    1) amplitude =  0.0001
    X: D(    1) --> V(    2) amplitude = -0.0000
    Y: D(    1) --> V(    2) amplitude =  0.0000
    X: D(    1) --> V(    3) amplitude =  0.0000
    Y: D(    1) --> V(    3) amplitude = -0.0000
    X: D(    1) --> V(    4) amplitude = -0.0000
    Y: D(    1) --> V(    4) amplitude = -0.0001
    X: D(    1) --> V(    5) amplitude =  0.0000
    Y: D(    1) --> V(    5) amplitude =  0.0000
    X: D(    1) --> V(    6) amplitude = -0.0001
    Y: D(    1) --> V(    6) amplitude = -0.0004
    X: D(    1) --> V(    7) amplitude = -0.0000
    Y: D(    1) --> V(    7) amplitude =  0.0000
    X: D(    1) --> V(    8) amplitude =  0.0001
    Y: D(    1) --> V(    8) amplitude = -0.0002
    X: D(    1) --> V(    9) amplitude =  0.0000
    Y: D(    1) --> V(    9) amplitude =  0.0000
    X: D(    1) --> V(   10) amplitude = -0.0000
    Y: D(    1) --> V(   10) amplitude =  0.0000
    X: D(    1) --> V(   11) amplitude = -0.0000
    Y: D(    1) --> V(   11) amplitude = -0.0000
    X: D(    1) --> V(   12) amplitude =  0.0000
    Y: D(    1) --> V(   12) amplitude =  0.0002
    X: D(    1) --> V(   13) amplitude =  0.0000
    Y: D(    1) --> V(   13) amplitude =  0.0000
    X: D(    2) --> V(    1) amplitude = -0.0260
    Y: D(    2) --> V(    1) amplitude = -0.0130
    X: D(    2) --> V(    2) amplitude = -0.0000
    Y: D(    2) --> V(    2) amplitude = -0.0000
    X: D(    2) --> V(    3) amplitude = -0.0000
    Y: D(    2) --> V(    3) amplitude =  0.0000
    X: D(    2) --> V(    4) amplitude = -0.0167
    Y: D(    2) --> V(    4) amplitude = -0.0083
    X: D(    2) --> V(    5) amplitude = -0.0000
    Y: D(    2) --> V(    5) amplitude =  0.0000
    X: D(    2) --> V(    6) amplitude =  0.0010
    Y: D(    2) --> V(    6) amplitude =  0.0024
    X: D(    2) --> V(    7) amplitude = -0.0000
    Y: D(    2) --> V(    7) amplitude =  0.0000
    X: D(    2) --> V(    8) amplitude =  0.0103
    Y: D(    2) --> V(    8) amplitude =  0.0067
    X: D(    2) --> V(    9) amplitude = -0.0033
    Y: D(    2) --> V(    9) amplitude = -0.0028
    X: D(    2) --> V(   10) amplitude =  0.0000
    Y: D(    2) --> V(   10) amplitude =  0.0000
    X: D(    2) --> V(   11) amplitude =  0.0000
    Y: D(    2) --> V(   11) amplitude = -0.0000
    X: D(    2) --> V(   12) amplitude = -0.0004
    Y: D(    2) --> V(   12) amplitude = -0.0002
    X: D(    2) --> V(   13) amplitude = -0.0000
    Y: D(    2) --> V(   13) amplitude = -0.0000
    X: D(    3) --> V(    1) amplitude = -0.0000
    Y: D(    3) --> V(    1) amplitude = -0.0000
    X: D(    3) --> V(    2) amplitude =  0.1018
    Y: D(    3) --> V(    2) amplitude =  0.0245
    X: D(    3) --> V(    3) amplitude = -0.0321
    Y: D(    3) --> V(    3) amplitude = -0.0123
    X: D(    3) --> V(    4) amplitude =  0.0000
    Y: D(    3) --> V(    4) amplitude =  0.0000
    X: D(    3) --> V(    5) amplitude =  0.0000
    Y: D(    3) --> V(    5) amplitude = -0.0000
    X: D(    3) --> V(    6) amplitude = -0.0000
    Y: D(    3) --> V(    6) amplitude =  0.0000
    X: D(    3) --> V(    7) amplitude =  0.0159
    Y: D(    3) --> V(    7) amplitude =  0.0069
    X: D(    3) --> V(    8) amplitude = -0.0000
    Y: D(    3) --> V(    8) amplitude =  0.0000
    X: D(    3) --> V(    9) amplitude = -0.0000
    Y: D(    3) --> V(    9) amplitude = -0.0000
    X: D(    3) --> V(   10) amplitude =  0.0000
    Y: D(    3) --> V(   10) amplitude =  0.0000
    X: D(    3) --> V(   11) amplitude =  0.0000
    Y: D(    3) --> V(   11) amplitude =  0.0000
    X: D(    3) --> V(   12) amplitude =  0.0000
    Y: D(    3) --> V(   12) amplitude = -0.0000
    X: D(    3) --> V(   13) amplitude =  0.0019
    Y: D(    3) --> V(   13) amplitude =  0.0002
    X: D(    4) --> V(    1) amplitude =  0.9940
    Y: D(    4) --> V(    1) amplitude = -0.0239
    X: D(    4) --> V(    2) amplitude = -0.0000
    Y: D(    4) --> V(    2) amplitude =  0.0000
    X: D(    4) --> V(    3) amplitude = -0.0000
    Y: D(    4) --> V(    3) amplitude = -0.0000
    X: D(    4) --> V(    4) amplitude =  0.0083
    Y: D(    4) --> V(    4) amplitude = -0.0139
    X: D(    4) --> V(    5) amplitude = -0.0000
    Y: D(    4) --> V(    5) amplitude =  0.0000
    X: D(    4) --> V(    6) amplitude = -0.0141
    Y: D(    4) --> V(    6) amplitude = -0.0057
    X: D(    4) --> V(    7) amplitude =  0.0000
    Y: D(    4) --> V(    7) amplitude = -0.0000
    X: D(    4) --> V(    8) amplitude = -0.0130
    Y: D(    4) --> V(    8) amplitude =  0.0028
    X: D(    4) --> V(    9) amplitude =  0.0025
    Y: D(    4) --> V(    9) amplitude =  0.0022
    X: D(    4) --> V(   10) amplitude = -0.0000
    Y: D(    4) --> V(   10) amplitude = -0.0000
    X: D(    4) --> V(   11) amplitude = -0.0000
    Y: D(    4) --> V(   11) amplitude =  0.0000
    X: D(    4) --> V(   12) amplitude = -0.0020
    Y: D(    4) --> V(   12) amplitude = -0.0005
    X: D(    4) --> V(   13) amplitude = -0.0000
    Y: D(    4) --> V(   13) amplitude = -0.0000
    X: D(    5) --> V(    1) amplitude = -0.0000
    Y: D(    5) --> V(    1) amplitude =  0.0000
    X: D(    5) --> V(    2) amplitude = -0.0000
    Y: D(    5) --> V(    2) amplitude =  0.0000
    X: D(    5) --> V(    3) amplitude = -0.0000
    Y: D(    5) --> V(    3) amplitude = -0.0000
    X: D(    5) --> V(    4) amplitude = -0.0000
    Y: D(    5) --> V(    4) amplitude = -0.0000
    X: D(    5) --> V(    5) amplitude =  0.0301
    Y: D(    5) --> V(    5) amplitude =  0.0144
    X: D(    5) --> V(    6) amplitude = -0.0000
    Y: D(    5) --> V(    6) amplitude =  0.0000
    X: D(    5) --> V(    7) amplitude = -0.0000
    Y: D(    5) --> V(    7) amplitude = -0.0000
    X: D(    5) --> V(    8) amplitude = -0.0000
    Y: D(    5) --> V(    8) amplitude =  0.0000
    X: D(    5) --> V(    9) amplitude =  0.0000
    Y: D(    5) --> V(    9) amplitude = -0.0000
    X: D(    5) --> V(   10) amplitude =  0.0000
    Y: D(    5) --> V(   10) amplitude = -0.0000
    X: D(    5) --> V(   11) amplitude =  0.0000
    Y: D(    5) --> V(   11) amplitude =  0.0005
    X: D(    5) --> V(   12) amplitude =  0.0000
    Y: D(    5) --> V(   12) amplitude = -0.0000
    X: D(    5) --> V(   13) amplitude = -0.0000
    Y: D(    5) --> V(   13) amplitude =  0.0000

 Excited state   7: excitation energy (eV) =   10.5007
 Total energy for state  7:                   -75.86828982 au
    Multiplicity: Triplet 
    Trans. Mom.:  0.0000 X   0.0000 Y   0.0000 Z
    Strength   :     0.0000000000
    X: D(    1) --> V(    1) amplitude = -0.0000
    Y: D(    1) --> V(    1) amplitude = -0.0000
    X: D(    1) --> V(    2) amplitude =  0.0000
    Y: D(    1) --> V(    2) amplitude = -0.0002
    X: D(    1) --> V(    3) amplitude =  0.0001
    Y: D(    1) --> V(    3) amplitude =  0.0001
    X: D(    1) --> V(    4) amplitude = -0.0000
    Y: D(    1) --> V(    4) amplitude = -0.0000
    X: D(    1) --> V(    5) amplitude =  0.0000
    Y: D(    1) --> V(    5) amplitude =  0.0000
    X: D(    1) --> V(    6) amplitude =  0.0000
    Y: D(    1) --> V(    6) amplitude =  0.0000
    X: D(    1) --> V(    7) amplitude =  0.0001
    Y: D(    1) --> V(    7) amplitude = -0.0000
    X: D(    1) --> V(    8) amplitude =  0.0000
    Y: D(    1) --> V(    8) amplitude =  0.0000
    X: D(    1) --> V(    9) amplitude =  0.0000
    Y: D(    1) --> V(    9) amplitude = -0.0000
    X: D(    1) --> V(   10) amplitude =  0.0000
    Y: D(    1) --> V(   10) amplitude = -0.0000
    X: D(    1) --> V(   11) amplitude = -0.0000
    Y: D(    1) --> V(   11) amplitude = -0.0000
    X: D(    1) --> V(   12) amplitude = -0.0000
    Y: D(    1) --> V(   12) amplitude =  0.0000
    X: D(    1) --> V(   13) amplitude =  0.0004
    Y: D(    1) --> V(   13) amplitude =  0.0003
    X: D(    2) --> V(    1) amplitude = -0.0000
    Y: D(    2) --> V(    1) amplitude = -0.0000
    X: D(    2) --> V(    2) amplitude =  0.0151
    Y: D(    2) --> V(    2) amplitude =  0.0046
    X: D(    2) --> V(    3) amplitude = -0.0026
    Y: D(    2) --> V(    3) amplitude = -0.0008
    X: D(    2) --> V(    4) amplitude = -0.0000
    Y: D(    2) --> V(    4) amplitude =  0.0000
    X: D(    2) --> V(    5) amplitude =  0.0000
    Y: D(    2) --> V(    5) amplitude =  0.0000
    X: D(    2) --> V(    6) amplitude =  0.0000
    Y: D(    2) --> V(    6) amplitude =  0.0000
    X: D(    2) --> V(    7) amplitude =  0.0037
    Y: D(    2) --> V(    7) amplitude =  0.0035
    X: D(    2) --> V(    8) amplitude =  0.0000
    Y: D(    2) --> V(    8) amplitude =  0.0000
    X: D(    2) --> V(    9) amplitude =  0.0000
    Y: D(    2) --> V(    9) amplitude = -0.0000
    X: D(    2) --> V(   10) amplitude = -0.0000
    Y: D(    2) --> V(   10) amplitude = -0.0000
    X: D(    2) --> V(   11) amplitude =  0.0000
    Y: D(    2) --> V(   11) amplitude = -0.0000
    X: D(    2) --> V(   12) amplitude = -0.0000
    Y: D(    2) --> V(   12) amplitude =  0.0000
    X: D(    2) --> V(   13) amplitude =  0.0127
    Y: D(    2) --> V(   13) amplitude =  0.0093
    X: D(    3) --> V(    1) amplitude = -0.2664
    Y: D(    3) --> V(    1) amplitude = -0.0341
    X: D(    3) --> V(    2) amplitude =  0.0000
    Y: D(    3) --> V(    2) amplitude = -0.0000
    X: D(    3) --> V(    3) amplitude = -0.0000
    Y: D(    3) --> V(    3) amplitude =  0.0000
    X: D(    3) --> V(    4) amplitude = -0.0505
    Y: D(    3) --> V(    4) amplitude = -0.0228
    X: D(    3) --> V(    5) amplitude = -0.0000
    Y: D(    3) --> V(    5) amplitude = -0.0000
    X: D(    3) --> V(    6) amplitude = -0.0154
    Y: D(    3) --> V(    6) amplitude = -0.0153
    X: D(    3) --> V(    7) amplitude =  0.0000
    Y: D(    3) --> V(    7) amplitude =  0.0000
    X: D(    3) --> V(    8) amplitude =  0.0035
    Y: D(    3) --> V(    8) amplitude =  0.0013
    X: D(    3) --> V(    9) amplitude = -0.0009
    Y: D(    3) --> V(    9) amplitude =  0.0003
    X: D(    3) --> V(   10) amplitude = -0.0000
    Y: D(    3) --> V(   10) amplitude =  0.0000
    X: D(    3) --> V(   11) amplitude =  0.0000
    Y: D(    3) --> V(   11) amplitude =  0.0000
    X: D(    3) --> V(   12) amplitude = -0.0007
    Y: D(    3) --> V(   12) amplitude = -0.0006
    X: D(    3) --> V(   13) amplitude =  0.0000
    Y: D(    3) --> V(   13) amplitude = -0.0000
    X: D(    4) --> V(    1) amplitude =  0.0000
    Y: D(    4) --> V(    1) amplitude = -0.0000
    X: D(    4) --> V(    2) amplitude =  0.9568
    Y: D(    4) --> V(    2) amplitude =  0.0374
    X: D(    4) --> V(    3) amplitude = -0.1135
    Y: D(    4) --> V(    3) amplitude = -0.0255
    X: D(    4) --> V(    4) amplitude = -0.0000
    Y: D(    4) --> V(    4) amplitude = -0.0000
    X: D(    4) --> V(    5) amplitude =  0.0000
    Y: D(    4) --> V(    5) amplitude =  0.0000
    X: D(    4) --> V(    6) amplitude = -0.0000
    Y: D(    4) --> V(    6) amplitude = -0.0000
    X: D(    4) --> V(    7) amplitude =  0.0392
    Y: D(    4) --> V(    7) amplitude =  0.0071
    X: D(    4) --> V(    8) amplitude = -0.0000
    Y: D(    4) --> V(    8) amplitude =  0.0000
    X: D(    4) --> V(    9) amplitude = -0.0000
    Y: D(    4) --> V(    9) amplitude =  0.0000
    X: D(    4) --> V(   10) amplitude =  0.0000
    Y: D(    4) --> V(   10) amplitude =  0.0000
    X: D(    4) --> V(   11) amplitude = -0.0000
    Y: D(    4) --> V(   11) amplitude = -0.0000
    X: D(    4) --> V(   12) amplitude =  0.0000
    Y: D(    4) --> V(   12) amplitude = -0.0000
    X: D(    4) --> V(   13) amplitude = -0.0074
    Y: D(    4) --> V(   13) amplitude = -0.0048
    X: D(    5) --> V(    1) amplitude =  0.0000
    Y: D(    5) --> V(    1) amplitude = -0.0000
    X: D(    5) --> V(    2) amplitude = -0.0000
    Y: D(    5) --> V(    2) amplitude =  0.0000
    X: D(    5) --> V(    3) amplitude = -0.0000
    Y: D(    5) --> V(    3) amplitude = -0.0000
    X: D(    5) --> V(    4) amplitude =  0.0000
    Y: D(    5) --> V(    4) amplitude = -0.0000
    X: D(    5) --> V(    5) amplitude =  0.0000
    Y: D(    5) --> V(    5) amplitude =  0.0000
    X: D(    5) --> V(    6) amplitude = -0.0000
    Y: D(    5) --> V(    6) amplitude = -0.0000
    X: D(    5) --> V(    7) amplitude = -0.0000
    Y: D(    5) --> V(    7) amplitude =  0.0000
    X: D(    5) --> V(    8) amplitude =  0.0000
    Y: D(    5) --> V(    8) amplitude = -0.0000
    X: D(    5) --> V(    9) amplitude = -0.0000
    Y: D(    5) --> V(    9) amplitude =  0.0000
    X: D(    5) --> V(   10) amplitude = -0.0038
    Y: D(    5) --> V(   10) amplitude = -0.0018
    X: D(    5) --> V(   11) amplitude =  0.0000
    Y: D(    5) --> V(   11) amplitude =  0.0000
    X: D(    5) --> V(   12) amplitude =  0.0000
    Y: D(    5) --> V(   12) amplitude = -0.0000
    X: D(    5) --> V(   13) amplitude = -0.0000
    Y: D(    5) --> V(   13) amplitude = -0.0000

 Excited state   8: excitation energy (eV) =   11.8634
 Total energy for state  8:                   -75.81821319 au
    Multiplicity: Singlet 
    Trans. Mom.:  0.5038 X   0.0000 Y  -0.0000 Z
    Strength   :     0.0737570676
    X: D(    1) --> V(    1) amplitude =  0.0000
    Y: D(    1) --> V(    1) amplitude = -0.0000
    X: D(    1) --> V(    2) amplitude =  0.0004
    Y: D(    1) --> V(    2) amplitude =  0.0001
    X: D(    1) --> V(    3) amplitude = -0.0003
    Y: D(    1) --> V(    3) amplitude = -0.0000
    X: D(    1) --> V(    4) amplitude =  0.0000
    Y: D(    1) --> V(    4) amplitude = -0.0000
    X: D(    1) --> V(    5) amplitude = -0.0000
    Y: D(    1) --> V(    5) amplitude = -0.0000
    X: D(    1) --> V(    6) amplitude = -0.0000
    Y: D(    1) --> V(    6) amplitude =  0.0000
    X: D(    1) --> V(    7) amplitude =  0.0007
    Y: D(    1) --> V(    7) amplitude =  0.0001
    X: D(    1) --> V(    8) amplitude = -0.0000
    Y: D(    1) --> V(    8) amplitude =  0.0000
    X: D(    1) --> V(    9) amplitude =  0.0000
    Y: D(    1) --> V(    9) amplitude = -0.0000
    X: D(    1) --> V(   10) amplitude =  0.0000
    Y: D(    1) --> V(   10) amplitude =  0.0000
    X: D(    1) --> V(   11) amplitude =  0.0000
    Y: D(    1) --> V(   11) amplitude =  0.0000
    X: D(    1) --> V(   12) amplitude = -0.0000
    Y: D(    1) --> V(   12) amplitude =  0.0000
    X: D(    1) --> V(   13) amplitude = -0.0000
    Y: D(    1) --> V(   13) amplitude =  0.0001
    X: D(    2) --> V(    1) amplitude =  0.0000
    Y: D(    2) --> V(    1) amplitude =  0.0000
    X: D(    2) --> V(    2) amplitude =  0.0202
    Y: D(    2) --> V(    2) amplitude =  0.0076
    X: D(    2) --> V(    3) amplitude = -0.0028
    Y: D(    2) --> V(    3) amplitude =  0.0018
    X: D(    2) --> V(    4) amplitude = -0.0000
    Y: D(    2) --> V(    4) amplitude = -0.0000
    X: D(    2) --> V(    5) amplitude =  0.0000
    Y: D(    2) --> V(    5) amplitude =  0.0000
    X: D(    2) --> V(    6) amplitude = -0.0000
    Y: D(    2) --> V(    6) amplitude =  0.0000
    X: D(    2) --> V(    7) amplitude = -0.0005
    Y: D(    2) --> V(    7) amplitude =  0.0010
    X: D(    2) --> V(    8) amplitude =  0.0000
    Y: D(    2) --> V(    8) amplitude = -0.0000
    X: D(    2) --> V(    9) amplitude = -0.0000
    Y: D(    2) --> V(    9) amplitude =  0.0000
    X: D(    2) --> V(   10) amplitude =  0.0000
    Y: D(    2) --> V(   10) amplitude = -0.0000
    X: D(    2) --> V(   11) amplitude = -0.0000
    Y: D(    2) --> V(   11) amplitude = -0.0000
    X: D(    2) --> V(   12) amplitude =  0.0000
    Y: D(    2) --> V(   12) amplitude = -0.0000
    X: D(    2) --> V(   13) amplitude = -0.0009
    Y: D(    2) --> V(   13) amplitude = -0.0013
    X: D(    3) --> V(    1) amplitude =  0.1296
    Y: D(    3) --> V(    1) amplitude =  0.0020
    X: D(    3) --> V(    2) amplitude =  0.0000
    Y: D(    3) --> V(    2) amplitude =  0.0000
    X: D(    3) --> V(    3) amplitude = -0.0000
    Y: D(    3) --> V(    3) amplitude = -0.0000
    X: D(    3) --> V(    4) amplitude =  0.0391
    Y: D(    3) --> V(    4) amplitude =  0.0096
    X: D(    3) --> V(    5) amplitude =  0.0000
    Y: D(    3) --> V(    5) amplitude = -0.0000
    X: D(    3) --> V(    6) amplitude =  0.0029
    Y: D(    3) --> V(    6) amplitude = -0.0008
    X: D(    3) --> V(    7) amplitude = -0.0000
    Y: D(    3) --> V(    7) amplitude =  0.0000
    X: D(    3) --> V(    8) amplitude =  0.0035
    Y: D(    3) --> V(    8) amplitude =  0.0035
    X: D(    3) --> V(    9) amplitude =  0.0080
    Y: D(    3) --> V(    9) amplitude =  0.0054
    X: D(    3) --> V(   10) amplitude = -0.0000
    Y: D(    3) --> V(   10) amplitude = -0.0000
    X: D(    3) --> V(   11) amplitude = -0.0000
    Y: D(    3) --> V(   11) amplitude = -0.0000
    X: D(    3) --> V(   12) amplitude = -0.0063
    Y: D(    3) --> V(   12) amplitude = -0.0042
    X: D(    3) --> V(   13) amplitude = -0.0000
    Y: D(    3) --> V(   13) amplitude = -0.0000
    X: D(    4) --> V(    1) amplitude =  0.0000
    Y: D(    4) --> V(    1) amplitude = -0.0000
    X: D(    4) --> V(    2) amplitude =  0.9906
    Y: D(    4) --> V(    2) amplitude = -0.0212
    X: D(    4) --> V(    3) amplitude =  0.0082
    Y: D(    4) --> V(    3) amplitude =  0.0233
    X: D(    4) --> V(    4) amplitude =  0.0000
    Y: D(    4) --> V(    4) amplitude = -0.0000
    X: D(    4) --> V(    5) amplitude =  0.0000
    Y: D(    4) --> V(    5) amplitude =  0.0000
    X: D(    4) --> V(    6) amplitude =  0.0000
    Y: D(    4) --> V(    6) amplitude =  0.0000
    X: D(    4) --> V(    7) amplitude =  0.0286
    Y: D(    4) --> V(    7) amplitude = -0.0007
    X: D(    4) --> V(    8) amplitude =  0.0000
    Y: D(    4) --> V(    8) amplitude = -0.0000
    X: D(    4) --> V(    9) amplitude =  0.0000
    Y: D(    4) --> V(    9) amplitude = -0.0000
    X: D(    4) --> V(   10) amplitude = -0.0000
    Y: D(    4) --> V(   10) amplitude = -0.0000
    X: D(    4) --> V(   11) amplitude = -0.0000
    Y: D(    4) --> V(   11) amplitude =  0.0000
    X: D(    4) --> V(   12) amplitude =  0.0000
    Y: D(    4) --> V(   12) amplitude = -0.0000
    X: D(    4) --> V(   13) amplitude =  0.0079
    Y: D(    4) --> V(   13) amplitude =  0.0064
    X: D(    5) --> V(    1) amplitude =  0.0000
    Y: D(    5) --> V(    1) amplitude = -0.0000
    X: D(    5) --> V(    2) amplitude = -0.0000
    Y: D(    5) --> V(    2) amplitude =  0.0000
    X: D(    5) --> V(    3) amplitude =  0.0000
    Y: D(    5) --> V(    3) amplitude = -0.0000
    X: D(    5) --> V(    4) amplitude = -0.0000
    Y: D(    5) --> V(    4) amplitude = -0.0000
    X: D(    5) --> V(    5) amplitude = -0.0000
    Y: D(    5) --> V(    5) amplitude = -0.0000
    X: D(    5) --> V(    6) amplitude =  0.0000
    Y: D(    5) --> V(    6) amplitude = -0.0000
    X: D(    5) --> V(    7) amplitude =  0.0000
    Y: D(    5) --> V(    7) amplitude = -0.0000
    X: D(    5) --> V(    8) amplitude = -0.0000
    Y: D(    5) --> V(    8) amplitude = -0.0000
    X: D(    5) --> V(    9) amplitude =  0.0000
    Y: D(    5) --> V(    9) amplitude =  0.0000
    X: D(    5) --> V(   10) amplitude =  0.0135
    Y: D(    5) --> V(   10) amplitude =  0.0105
    X: D(    5) --> V(   11) amplitude = -0.0000
    Y: D(    5) --> V(   11) amplitude = -0.0000
    X: D(    5) --> V(   12) amplitude =  0.0000
    Y: D(    5) --> V(   12) amplitude = -0.0000
    X: D(    5) --> V(   13) amplitude =  0.0000
    Y: D(    5) --> V(   13) amplitude =  0.0000

 Excited state   9: excitation energy (eV) =   12.4635
 Total energy for state  9:                   -75.79615822 au
    Multiplicity: Triplet 
    Trans. Mom.:  0.0000 X   0.0000 Y   0.0000 Z
    Strength   :     0.0000000000
    X: D(    1) --> V(    1) amplitude = -0.0000
    Y: D(    1) --> V(    1) amplitude = -0.0000
    X: D(    1) --> V(    2) amplitude = -0.0002
    Y: D(    1) --> V(    2) amplitude = -0.0000
    X: D(    1) --> V(    3) amplitude =  0.0001
    Y: D(    1) --> V(    3) amplitude =  0.0001
    X: D(    1) --> V(    4) amplitude = -0.0000
    Y: D(    1) --> V(    4) amplitude = -0.0000
    X: D(    1) --> V(    5) amplitude = -0.0000
    Y: D(    1) --> V(    5) amplitude =  0.0000
    X: D(    1) --> V(    6) amplitude =  0.0000
    Y: D(    1) --> V(    6) amplitude = -0.0000
    X: D(    1) --> V(    7) amplitude = -0.0002
    Y: D(    1) --> V(    7) amplitude = -0.0001
    X: D(    1) --> V(    8) amplitude =  0.0000
    Y: D(    1) --> V(    8) amplitude = -0.0000
    X: D(    1) --> V(    9) amplitude =  0.0000
    Y: D(    1) --> V(    9) amplitude =  0.0000
    X: D(    1) --> V(   10) amplitude =  0.0000
    Y: D(    1) --> V(   10) amplitude =  0.0000
    X: D(    1) --> V(   11) amplitude = -0.0000
    Y: D(    1) --> V(   11) amplitude =  0.0000
    X: D(    1) --> V(   12) amplitude =  0.0000
    Y: D(    1) --> V(   12) amplitude =  0.0000
    X: D(    1) --> V(   13) amplitude = -0.0001
    Y: D(    1) --> V(   13) amplitude = -0.0001
    X: D(    2) --> V(    1) amplitude = -0.0000
    Y: D(    2) --> V(    1) amplitude = -0.0000
    X: D(    2) --> V(    2) amplitude = -0.0508
    Y: D(    2) --> V(    2) amplitude = -0.0178
    X: D(    2) --> V(    3) amplitude =  0.0178
    Y: D(    2) --> V(    3) amplitude =  0.0092
    X: D(    2) --> V(    4) amplitude = -0.0000
    Y: D(    2) --> V(    4) amplitude = -0.0000
    X: D(    2) --> V(    5) amplitude =  0.0000
    Y: D(    2) --> V(    5) amplitude = -0.0000
    X: D(    2) --> V(    6) amplitude = -0.0000
    Y: D(    2) --> V(    6) amplitude =  0.0000
    X: D(    2) --> V(    7) amplitude = -0.0178
    Y: D(    2) --> V(    7) amplitude = -0.0116
    X: D(    2) --> V(    8) amplitude =  0.0000
    Y: D(    2) --> V(    8) amplitude =  0.0000
    X: D(    2) --> V(    9) amplitude =  0.0000
    Y: D(    2) --> V(    9) amplitude = -0.0000
    X: D(    2) --> V(   10) amplitude =  0.0000
    Y: D(    2) --> V(   10) amplitude =  0.0000
    X: D(    2) --> V(   11) amplitude =  0.0000
    Y: D(    2) --> V(   11) amplitude = -0.0000
    X: D(    2) --> V(   12) amplitude = -0.0000
    Y: D(    2) --> V(   12) amplitude =  0.0000
    X: D(    2) --> V(   13) amplitude = -0.0062
    Y: D(    2) --> V(   13) amplitude = -0.0046
    X: D(    3) --> V(    1) amplitude =  0.9581
    Y: D(    3) --> V(    1) amplitude =  0.0246
    X: D(    3) --> V(    2) amplitude =  0.0000
    Y: D(    3) --> V(    2) amplitude = -0.0000
    X: D(    3) --> V(    3) amplitude = -0.0000
    Y: D(    3) --> V(    3) amplitude =  0.0000
    X: D(    3) --> V(    4) amplitude =  0.0835
    Y: D(    3) --> V(    4) amplitude =  0.0178
    X: D(    3) --> V(    5) amplitude =  0.0000
    Y: D(    3) --> V(    5) amplitude = -0.0000
    X: D(    3) --> V(    6) amplitude =  0.0043
    Y: D(    3) --> V(    6) amplitude = -0.0040
    X: D(    3) --> V(    7) amplitude =  0.0000
    Y: D(    3) --> V(    7) amplitude =  0.0000
    X: D(    3) --> V(    8) amplitude = -0.0248
    Y: D(    3) --> V(    8) amplitude = -0.0045
    X: D(    3) --> V(    9) amplitude = -0.0016
    Y: D(    3) --> V(    9) amplitude = -0.0013
    X: D(    3) --> V(   10) amplitude = -0.0000
    Y: D(    3) --> V(   10) amplitude =  0.0000
    X: D(    3) --> V(   11) amplitude =  0.0000
    Y: D(    3) --> V(   11) amplitude =  0.0000
    X: D(    3) --> V(   12) amplitude =  0.0047
    Y: D(    3) --> V(   12) amplitude =  0.0036
    X: D(    3) --> V(   13) amplitude =  0.0000
    Y: D(    3) --> V(   13) amplitude =  0.0000
    X: D(    4) --> V(    1) amplitude =  0.0000
    Y: D(    4) --> V(    1) amplitude = -0.0000
    X: D(    4) --> V(    2) amplitude =  0.2700
    Y: D(    4) --> V(    2) amplitude = -0.0167
    X: D(    4) --> V(    3) amplitude =  0.0022
    Y: D(    4) --> V(    3) amplitude =  0.0086
    X: D(    4) --> V(    4) amplitude = -0.0000
    Y: D(    4) --> V(    4) amplitude =  0.0000
    X: D(    4) --> V(    5) amplitude =  0.0000
    Y: D(    4) --> V(    5) amplitude = -0.0000
    X: D(    4) --> V(    6) amplitude =  0.0000
    Y: D(    4) --> V(    6) amplitude =  0.0000
    X: D(    4) --> V(    7) amplitude =  0.0073
    Y: D(    4) --> V(    7) amplitude = -0.0046
    X: D(    4) --> V(    8) amplitude =  0.0000
    Y: D(    4) --> V(    8) amplitude =  0.0000
    X: D(    4) --> V(    9) amplitude = -0.0000
    Y: D(    4) --> V(    9) amplitude = -0.0000
    X: D(    4) --> V(   10) amplitude = -0.0000
    Y: D(    4) --> V(   10) amplitude = -0.0000
    X: D(    4) --> V(   11) amplitude = -0.0000
    Y: D(    4) --> V(   11) amplitude =  0.0000
    X: D(    4) --> V(   12) amplitude = -0.0000
    Y: D(    4) --> V(   12) amplitude = -0.0000
    X: D(    4) --> V(   13) amplitude = -0.0067
    Y: D(    4) --> V(   13) amplitude = -0.0045
    X: D(    5) --> V(    1) amplitude = -0.0000
    Y: D(    5) --> V(    1) amplitude =  0.0000
    X: D(    5) --> V(    2) amplitude =  0.0000
    Y: D(    5) --> V(    2) amplitude = -0.0000
    X: D(    5) --> V(    3) amplitude = -0.0000
    Y: D(    5) --> V(    3) amplitude = -0.0000
    X: D(    5) --> V(    4) amplitude =  0.0000
    Y: D(    5) --> V(    4) amplitude = -0.0000
    X: D(    5) --> V(    5) amplitude =  0.0000
    Y: D(    5) --> V(    5) amplitude =  0.0000
    X: D(    5) --> V(    6) amplitude = -0.0000
    Y: D(    5) --> V(    6) amplitude =  0.0000
    X: D(    5) --> V(    7) amplitude = -0.0000
    Y: D(    5) --> V(    7) amplitude =  0.0000
    X: D(    5) --> V(    8) amplitude =  0.0000
    Y: D(    5) --> V(    8) amplitude = -0.0000
    X: D(    5) --> V(    9) amplitude = -0.0000
    Y: D(    5) --> V(    9) amplitude =  0.0000
    X: D(    5) --> V(   10) amplitude = -0.0068
    Y: D(    5) --> V(   10) amplitude = -0.0052
    X: D(    5) --> V(   11) amplitude = -0.0000
    Y: D(    5) --> V(   11) amplitude = -0.0000
    X: D(    5) --> V(   12) amplitude =  0.0000
    Y: D(    5) --> V(   12) amplitude = -0.0000
    X: D(    5) --> V(   13) amplitude = -0.0000
    Y: D(    5) --> V(   13) amplitude = -0.0000

 Excited state  10: excitation energy (eV) =   13.8096
 Total energy for state 10:                   -75.74669166 au
    Multiplicity: Singlet 
    Trans. Mom.: -0.9701 X  -0.0000 Y   0.0000 Z
    Strength   :     0.3183752098
    X: D(    1) --> V(    1) amplitude = -0.0000
    Y: D(    1) --> V(    1) amplitude =  0.0000
    X: D(    1) --> V(    2) amplitude =  0.0001
    Y: D(    1) --> V(    2) amplitude =  0.0001
    X: D(    1) --> V(    3) amplitude = -0.0001
    Y: D(    1) --> V(    3) amplitude = -0.0001
    X: D(    1) --> V(    4) amplitude = -0.0000
    Y: D(    1) --> V(    4) amplitude =  0.0000
    X: D(    1) --> V(    5) amplitude = -0.0000
    Y: D(    1) --> V(    5) amplitude = -0.0000
    X: D(    1) --> V(    6) amplitude =  0.0000
    Y: D(    1) --> V(    6) amplitude = -0.0000
    X: D(    1) --> V(    7) amplitude =  0.0003
    Y: D(    1) --> V(    7) amplitude =  0.0001
    X: D(    1) --> V(    8) amplitude =  0.0000
    Y: D(    1) --> V(    8) amplitude = -0.0000
    X: D(    1) --> V(    9) amplitude = -0.0000
    Y: D(    1) --> V(    9) amplitude =  0.0000
    X: D(    1) --> V(   10) amplitude = -0.0000
    Y: D(    1) --> V(   10) amplitude = -0.0000
    X: D(    1) --> V(   11) amplitude = -0.0000
    Y: D(    1) --> V(   11) amplitude =  0.0000
    X: D(    1) --> V(   12) amplitude =  0.0000
    Y: D(    1) --> V(   12) amplitude = -0.0000
    X: D(    1) --> V(   13) amplitude = -0.0000
    Y: D(    1) --> V(   13) amplitude = -0.0000
    X: D(    2) --> V(    1) amplitude = -0.0000
    Y: D(    2) --> V(    1) amplitude = -0.0000
    X: D(    2) --> V(    2) amplitude =  0.0031
    Y: D(    2) --> V(    2) amplitude =  0.0033
    X: D(    2) --> V(    3) amplitude = -0.0164
    Y: D(    2) --> V(    3) amplitude = -0.0073
    X: D(    2) --> V(    4) amplitude =  0.0000
    Y: D(    2) --> V(    4) amplitude =  0.0000
    X: D(    2) --> V(    5) amplitude = -0.0000
    Y: D(    2) --> V(    5) amplitude =  0.0000
    X: D(    2) --> V(    6) amplitude =  0.0000
    Y: D(    2) --> V(    6) amplitude = -0.0000
    X: D(    2) --> V(    7) amplitude =  0.0096
    Y: D(    2) --> V(    7) amplitude =  0.0039
    X: D(    2) --> V(    8) amplitude =  0.0000
    Y: D(    2) --> V(    8) amplitude =  0.0000
    X: D(    2) --> V(    9) amplitude =  0.0000
    Y: D(    2) --> V(    9) amplitude = -0.0000
    X: D(    2) --> V(   10) amplitude = -0.0000
    Y: D(    2) --> V(   10) amplitude = -0.0000
    X: D(    2) --> V(   11) amplitude =  0.0000
    Y: D(    2) --> V(   11) amplitude = -0.0000
    X: D(    2) --> V(   12) amplitude = -0.0000
    Y: D(    2) --> V(   12) amplitude =  0.0000
    X: D(    2) --> V(   13) amplitude =  0.0019
    Y: D(    2) --> V(   13) amplitude =  0.0029
    X: D(    3) --> V(    1) amplitude =  0.9902
    Y: D(    3) --> V(    1) amplitude = -0.0219
    X: D(    3) --> V(    2) amplitude =  0.0000
    Y: D(    3) --> V(    2) amplitude =  0.0000
    X: D(    3) --> V(    3) amplitude =  0.0000
    Y: D(    3) --> V(    3) amplitude =  0.0000
    X: D(    3) --> V(    4) amplitude = -0.0198
    Y: D(    3) --> V(    4) amplitude = -0.0215
    X: D(    3) --> V(    5) amplitude =  0.0000
    Y: D(    3) --> V(    5) amplitude =  0.0000
    X: D(    3) --> V(    6) amplitude =  0.0140
    Y: D(    3) --> V(    6) amplitude =  0.0028
    X: D(    3) --> V(    7) amplitude =  0.0000
    Y: D(    3) --> V(    7) amplitude = -0.0000
    X: D(    3) --> V(    8) amplitude = -0.0114
    Y: D(    3) --> V(    8) amplitude =  0.0012
    X: D(    3) --> V(    9) amplitude =  0.0003
    Y: D(    3) --> V(    9) amplitude = -0.0001
    X: D(    3) --> V(   10) amplitude = -0.0000
    Y: D(    3) --> V(   10) amplitude =  0.0000
    X: D(    3) --> V(   11) amplitude =  0.0000
    Y: D(    3) --> V(   11) amplitude = -0.0000
    X: D(    3) --> V(   12) amplitude = -0.0028
    Y: D(    3) --> V(   12) amplitude = -0.0021
    X: D(    3) --> V(   13) amplitude =  0.0000
    Y: D(    3) --> V(   13) amplitude =  0.0000
    X: D(    4) --> V(    1) amplitude = -0.0000
    Y: D(    4) --> V(    1) amplitude = -0.0000
    X: D(    4) --> V(    2) amplitude = -0.1289
    Y: D(    4) --> V(    2) amplitude =  0.0071
    X: D(    4) --> V(    3) amplitude = -0.0541
    Y: D(    4) --> V(    3) amplitude = -0.0124
    X: D(    4) --> V(    4) amplitude =  0.0000
    Y: D(    4) --> V(    4) amplitude =  0.0000
    X: D(    4) --> V(    5) amplitude =  0.0000
    Y: D(    4) --> V(    5) amplitude =  0.0000
    X: D(    4) --> V(    6) amplitude = -0.0000
    Y: D(    4) --> V(    6) amplitude =  0.0000
    X: D(    4) --> V(    7) amplitude = -0.0060
    Y: D(    4) --> V(    7) amplitude = -0.0038
    X: D(    4) --> V(    8) amplitude = -0.0000
    Y: D(    4) --> V(    8) amplitude =  0.0000
    X: D(    4) --> V(    9) amplitude = -0.0000
    Y: D(    4) --> V(    9) amplitude =  0.0000
    X: D(    4) --> V(   10) amplitude =  0.0000
    Y: D(    4) --> V(   10) amplitude = -0.0000
    X: D(    4) --> V(   11) amplitude =  0.0000
    Y: D(    4) --> V(   11) amplitude =  0.0000
    X: D(    4) --> V(   12) amplitude = -0.0000
    Y: D(    4) --> V(   12) amplitude =  0.0000
    X: D(    4) --> V(   13) amplitude =  0.0015
    Y: D(    4) --> V(   13) amplitude =  0.0006
    X: D(    5) --> V(    1) amplitude =  0.0000
    Y: D(    5) --> V(    1) amplitude =  0.0000
    X: D(    5) --> V(    2) amplitude = -0.0000
    Y: D(    5) --> V(    2) amplitude =  0.0000
    X: D(    5) --> V(    3) amplitude = -0.0000
    Y: D(    5) --> V(    3) amplitude = -0.0000
    X: D(    5) --> V(    4) amplitude = -0.0000
    Y: D(    5) --> V(    4) amplitude = -0.0000
    X: D(    5) --> V(    5) amplitude =  0.0000
    Y: D(    5) --> V(    5) amplitude =  0.0000
    X: D(    5) --> V(    6) amplitude = -0.0000
    Y: D(    5) --> V(    6) amplitude =  0.0000
    X: D(    5) --> V(    7) amplitude = -0.0000
    Y: D(    5) --> V(    7) amplitude =  0.0000
    X: D(    5) --> V(    8) amplitude =  0.0000
    Y: D(    5) --> V(    8) amplitude =  0.0000
    X: D(    5) --> V(    9) amplitude = -0.0000
    Y: D(    5) --> V(    9) amplitude = -0.0000
    X: D(    5) --> V(   10) amplitude = -0.0006
    Y: D(    5) --> V(   10) amplitude = -0.0005
    X: D(    5) --> V(   11) amplitude = -0.0000
    Y: D(    5) --> V(   11) amplitude =  0.0000
    X: D(    5) --> V(   12) amplitude = -0.0000
    Y: D(    5) --> V(   12) amplitude =  0.0000
    X: D(    5) --> V(   13) amplitude = -0.0000
    Y: D(    5) --> V(   13) amplitude = -0.0000

 ---------------------------------------------------
  SETman timing summary (seconds)
  CPU time                10.89s
  System time              0.00s
  Wall time                2.23s



*********SPIN-ORBIT COUPLING JOB BEGINS HERE*********





================================================================================
 SPIN-ORBIT COUPLING BETWEEN THE SINGLET GROUND STATE AND EXCITED TRIPLET STATES
================================================================================

SOC between the singlet ground state and excited triplet states (ms=0):
T1(ms=0)        0.000000 -        0.000000i  cm-1
T2(ms=0)        0.000000 +        0.000000i  cm-1
T3(ms=0)        0.000000 +       91.324359i  cm-1
T4(ms=0)        0.000000 -        0.000000i  cm-1
T5(ms=0)        0.000000 +        0.000000i  cm-1
SOC between the singlet ground state and excited triplet states (ms=1):
T1(ms=1)       -0.000000 +       44.578829i  cm-1
T2(ms=1)        0.000000 -        0.000000i  cm-1
T3(ms=1)       -0.000000 +        0.000000i  cm-1
T4(ms=1)       43.642055 +        0.000000i  cm-1
T5(ms=1)       46.098043 +        0.000000i  cm-1
SOC between the singlet ground state and excited triplet states (ms=-1):
T1(ms=1)       -0.000000 -       44.578829i  cm-1
T2(ms=1)        0.000000 +        0.000000i  cm-1
T3(ms=1)       -0.000000 -        0.000000i  cm-1
T4(ms=1)       43.642055 -        0.000000i  cm-1
T5(ms=1)       46.098043 -        0.000000i  cm-1
Total SOC between the singlet ground state and excited triplet states:
T1       63.043985  cm-1
T2        0.000000  cm-1
T3       91.324359  cm-1
T4       61.719186  cm-1
T5       65.192477  cm-1


================================================================================
 SPIN-ORBIT COUPLING BETWEEN EXCITED TRIPLET STATES
================================================================================

SOC between the T1 (ms=0) state and excited triplet states (ms=1):
T2(ms=1)       -0.000000 +       60.665415i  cm-1
T3(ms=1)      -21.101894 -        0.000000i  cm-1
T4(ms=1)       -0.000000 +        0.000000i  cm-1
T5(ms=1)       -0.000000 +        0.000000i  cm-1

SOC between the T1 (ms=0) state and excited triplet states (ms=-1):
T2(ms=-1)        0.000000 +       60.665415i  cm-1
T3(ms=-1)       21.101894 -        0.000000i  cm-1
T4(ms=-1)        0.000000 +        0.000000i  cm-1
T5(ms=-1)        0.000000 +        0.000000i  cm-1

SOC between the T1 (ms=1) state and excited triplet states (ms=0):
T2(ms=0)        0.000000 +       60.665415i  cm-1
T3(ms=0)       21.101894 -        0.000000i  cm-1
T4(ms=0)        0.000000 +        0.000000i  cm-1
T5(ms=0)        0.000000 +        0.000000i  cm-1

SOC between the T1 (ms=1) state and excited triplet states (ms=1):
T2(ms=1)        0.000000 -        0.000000i  cm-1
T3(ms=1)        0.000000 -        0.000000i  cm-1
T4(ms=1)        0.000000 +       21.267442i  cm-1
T5(ms=1)        0.000000 -       76.496980i  cm-1

SOC between the T1 (ms=-1) state and excited triplet states (ms=0):
T2(ms=0)       -0.000000 +       60.665415i  cm-1
T3(ms=0)      -21.101894 -        0.000000i  cm-1
T4(ms=0)       -0.000000 +        0.000000i  cm-1
T5(ms=0)       -0.000000 +        0.000000i  cm-1

SOC between the T1 (ms=-1) state and excited triplet states (ms=-1):
T2(ms=-1)        0.000000 +        0.000000i  cm-1
T3(ms=-1)        0.000000 +        0.000000i  cm-1
T4(ms=-1)        0.000000 -       21.267442i  cm-1
T5(ms=-1)        0.000000 +       76.496980i  cm-1

Total SOC between the T1 state and excited triplet states:
T2      121.330830  cm-1
T3       42.203788  cm-1
T4       30.076705  cm-1
T5      108.183067  cm-1

SOC between the T2 (ms=0) state and excited triplet states (ms=1):
T3(ms=1)        0.000000 +        0.000000i  cm-1
T4(ms=1)      -11.249499 +        0.000000i  cm-1
T5(ms=1)      -55.347796 +        0.000000i  cm-1

SOC between the T2 (ms=0) state and excited triplet states (ms=-1):
T3(ms=-1)       -0.000000 +        0.000000i  cm-1
T4(ms=-1)       11.249499 +        0.000000i  cm-1
T5(ms=-1)       55.347796 +        0.000000i  cm-1

SOC between the T2 (ms=1) state and excited triplet states (ms=0):
T3(ms=0)       -0.000000 +        0.000000i  cm-1
T4(ms=0)       11.249499 +        0.000000i  cm-1
T5(ms=0)       55.347796 +        0.000000i  cm-1

SOC between the T2 (ms=1) state and excited triplet states (ms=1):
T3(ms=1)        0.000000 -        7.433521i  cm-1
T4(ms=1)        0.000000 -        0.000000i  cm-1
T5(ms=1)        0.000000 +        0.000000i  cm-1

SOC between the T2 (ms=-1) state and excited triplet states (ms=0):
T3(ms=0)        0.000000 +        0.000000i  cm-1
T4(ms=0)      -11.249499 +        0.000000i  cm-1
T5(ms=0)      -55.347796 +        0.000000i  cm-1

SOC between the T2 (ms=-1) state and excited triplet states (ms=-1):
T3(ms=-1)        0.000000 +        7.433521i  cm-1
T4(ms=-1)        0.000000 +        0.000000i  cm-1
T5(ms=-1)        0.000000 -        0.000000i  cm-1

Total SOC between the T2 state and excited triplet states:
T3       10.512586  cm-1
T4       22.498997  cm-1
T5      110.695592  cm-1

SOC between the T3 (ms=0) state and excited triplet states (ms=1):
T4(ms=1)        0.000000 +       58.213564i  cm-1
T5(ms=1)        0.000000 +       16.059770i  cm-1

SOC between the T3 (ms=0) state and excited triplet states (ms=-1):
T4(ms=-1)       -0.000000 +       58.213564i  cm-1
T5(ms=-1)       -0.000000 +       16.059770i  cm-1

SOC between the T3 (ms=1) state and excited triplet states (ms=0):
T4(ms=0)       -0.000000 +       58.213564i  cm-1
T5(ms=0)       -0.000000 +       16.059770i  cm-1

SOC between the T3 (ms=1) state and excited triplet states (ms=1):
T4(ms=1)        0.000000 -        0.000000i  cm-1
T5(ms=1)        0.000000 -        0.000000i  cm-1

SOC between the T3 (ms=-1) state and excited triplet states (ms=0):
T4(ms=0)        0.000000 +       58.213564i  cm-1
T5(ms=0)        0.000000 +       16.059770i  cm-1

SOC between the T3 (ms=-1) state and excited triplet states (ms=-1):
T4(ms=-1)        0.000000 +        0.000000i  cm-1
T5(ms=-1)        0.000000 +        0.000000i  cm-1

Total SOC between the T3 state and excited triplet states:
T4      116.427128  cm-1
T5       32.119541  cm-1

SOC between the T4 (ms=0) state and excited triplet states (ms=1):
T5(ms=1)       -0.000000 -        0.000000i  cm-1

SOC between the T4 (ms=0) state and excited triplet states (ms=-1):
T5(ms=-1)        0.000000 -        0.000000i  cm-1

SOC between the T4 (ms=1) state and excited triplet states (ms=0):
T5(ms=0)        0.000000 -        0.000000i  cm-1

SOC between the T4 (ms=1) state and excited triplet states (ms=1):
T5(ms=1)        0.000000 -        0.000000i  cm-1

SOC between the T4 (ms=-1) state and excited triplet states (ms=0):
T5(ms=0)       -0.000000 -        0.000000i  cm-1

SOC between the T4 (ms=-1) state and excited triplet states (ms=-1):
T5(ms=-1)        0.000000 +        0.000000i  cm-1

Total SOC between the T4 state and excited triplet states:
T5        0.000000  cm-1



================================================================================
 SPIN-ORBIT COUPLING BETWEEN EXCITED SINGLET STATES AND TRIPLET STATES
================================================================================

SOC between the S1 state and excited triplet states (ms=0):
T1(ms=0)        0.000000 -        0.000000i  cm-1
T2(ms=0)        0.000000 -        0.000000i  cm-1
T3(ms=0)        0.000000 +        0.000000i  cm-1
T4(ms=0)        0.000000 +       21.399270i  cm-1
T5(ms=0)        0.000000 -       76.259569i  cm-1

SOC between the S1 state and excited triplet states (ms=1):
T1(ms=1)        0.000000 +        0.000000i  cm-1
T2(ms=1)       -0.000000 -       60.547636i  cm-1
T3(ms=1)      -19.810659 +        0.000000i  cm-1
T4(ms=1)       -0.000000 -        0.000000i  cm-1
T5(ms=1)        0.000000 -        0.000000i  cm-1

SOC between the S1 state and excited triplet states (ms=-1):
T1(ms=-1)       -0.000000 +        0.000000i  cm-1
T2(ms=-1)        0.000000 -       60.547636i  cm-1
T3(ms=-1)       19.810659 +        0.000000i  cm-1
T4(ms=-1)        0.000000 -        0.000000i  cm-1
T5(ms=-1)       -0.000000 -        0.000000i  cm-1

Total SOC between the S1 state and excited triplet states:
T1        0.000000  cm-1
T2       85.627289  cm-1
T3       28.016503  cm-1
T4       21.399270  cm-1
T5       76.259569  cm-1

SOC between the S2 state and excited triplet states (ms=0):
T1(ms=0)        0.000000 -        0.000000i  cm-1
T2(ms=0)        0.000000 +        7.252218i  cm-1
T3(ms=0)        0.000000 -        0.000000i  cm-1
T4(ms=0)        0.000000 -        0.000000i  cm-1
T5(ms=0)        0.000000 -        0.000000i  cm-1

SOC between the S2 state and excited triplet states (ms=1):
T1(ms=1)       19.977338 +        0.000000i  cm-1
T2(ms=1)       -0.000000 +        0.000000i  cm-1
T3(ms=1)        0.000000 +        0.000000i  cm-1
T4(ms=1)       -0.000000 -       58.227582i  cm-1
T5(ms=1)       -0.000000 -       15.686668i  cm-1

SOC between the S2 state and excited triplet states (ms=-1):
T1(ms=-1)      -19.977338 +        0.000000i  cm-1
T2(ms=-1)        0.000000 +        0.000000i  cm-1
T3(ms=-1)       -0.000000 +        0.000000i  cm-1
T4(ms=-1)        0.000000 -       58.227582i  cm-1
T5(ms=-1)        0.000000 -       15.686668i  cm-1

Total SOC between the S2 state and excited triplet states:
T1       28.252222  cm-1
T2        7.252218  cm-1
T3        0.000000  cm-1
T4       82.346236  cm-1
T5       22.184298  cm-1

SOC between the S3 state and excited triplet states (ms=0):
T1(ms=0)        0.000000 +        0.000000i  cm-1
T2(ms=0)        0.000000 +        0.000000i  cm-1
T3(ms=0)        0.000000 +        6.096600i  cm-1
T4(ms=0)        0.000000 -        0.000000i  cm-1
T5(ms=0)        0.000000 +        0.000000i  cm-1

SOC between the S3 state and excited triplet states (ms=1):
T1(ms=1)        0.000000 +       60.711512i  cm-1
T2(ms=1)        0.000000 +        0.000000i  cm-1
T3(ms=1)        0.000000 -        0.000000i  cm-1
T4(ms=1)      -36.091323 -        0.000000i  cm-1
T5(ms=1)       42.907384 -        0.000000i  cm-1

SOC between the S3 state and excited triplet states (ms=-1):
T1(ms=-1)       -0.000000 +       60.711512i  cm-1
T2(ms=-1)       -0.000000 +        0.000000i  cm-1
T3(ms=-1)       -0.000000 -        0.000000i  cm-1
T4(ms=-1)       36.091323 -        0.000000i  cm-1
T5(ms=-1)      -42.907384 -        0.000000i  cm-1

Total SOC between the S3 state and excited triplet states:
T1       85.859044  cm-1
T2        0.000000  cm-1
T3        6.096600  cm-1
T4       51.040839  cm-1
T5       60.680204  cm-1

SOC between the S4 state and excited triplet states (ms=0):
T1(ms=0)        0.000000 +       10.276443i  cm-1
T2(ms=0)        0.000000 +        0.000000i  cm-1
T3(ms=0)        0.000000 +        0.000000i  cm-1
T4(ms=0)        0.000000 +        0.000000i  cm-1
T5(ms=0)        0.000000 +        0.000000i  cm-1

SOC between the S4 state and excited triplet states (ms=1):
T1(ms=1)        0.000000 +        0.000000i  cm-1
T2(ms=1)        8.711230 +        0.000000i  cm-1
T3(ms=1)       -0.000000 +       59.742246i  cm-1
T4(ms=1)        0.000000 -        0.000000i  cm-1
T5(ms=1)        0.000000 +        0.000000i  cm-1

SOC between the S4 state and excited triplet states (ms=-1):
T1(ms=-1)       -0.000000 +        0.000000i  cm-1
T2(ms=-1)       -8.711230 +        0.000000i  cm-1
T3(ms=-1)        0.000000 +       59.742246i  cm-1
T4(ms=-1)       -0.000000 -        0.000000i  cm-1
T5(ms=-1)       -0.000000 +        0.000000i  cm-1

Total SOC between the S4 state and excited triplet states:
T1       10.276443  cm-1
T2       12.319540  cm-1
T3       84.488295  cm-1
T4        0.000000  cm-1
T5        0.000000  cm-1

SOC between the S5 state and excited triplet states (ms=0):
T1(ms=0)        0.000000 +       78.385607i  cm-1
T2(ms=0)        0.000000 -        0.000000i  cm-1
T3(ms=0)        0.000000 -        0.000000i  cm-1
T4(ms=0)        0.000000 -        0.000000i  cm-1
T5(ms=0)        0.000000 -        0.000000i  cm-1

SOC between the S5 state and excited triplet states (ms=1):
T1(ms=1)       -0.000000 -        0.000000i  cm-1
T2(ms=1)      -47.277108 -        0.000000i  cm-1
T3(ms=1)        0.000000 -        7.873610i  cm-1
T4(ms=1)       -0.000000 +        0.000000i  cm-1
T5(ms=1)       -0.000000 -        0.000000i  cm-1

SOC between the S5 state and excited triplet states (ms=-1):
T1(ms=-1)        0.000000 -        0.000000i  cm-1
T2(ms=-1)       47.277108 -        0.000000i  cm-1
T3(ms=-1)       -0.000000 -        7.873610i  cm-1
T4(ms=-1)        0.000000 +        0.000000i  cm-1
T5(ms=-1)        0.000000 -        0.000000i  cm-1

Total SOC between the S5 state and excited triplet states:
T1       78.385607  cm-1
T2       66.859928  cm-1
T3       11.134966  cm-1
T4        0.000000  cm-1
T5        0.000000  cm-1



            *********SOC CODE ENDS HERE*********




 --------------------------------------------------------------
             Orbital Energies (a.u.) and Symmetries
 --------------------------------------------------------------

 Alpha MOs, Restricted
 -- Occupied --                  
-19.194  -0.997  -0.523  -0.378  -0.304
  1 A1    2 A1    1 B1    3 A1    1 B2                                         
 -- Virtual --                   
  0.051   0.129   0.569   0.641   0.946   0.960   1.107   1.191
  4 A1    2 B1    3 B1    5 A1    2 B2    6 A1    4 B1    7 A1                 
  2.590   2.605   2.634   2.916   3.054
  8 A1    1 A2    3 B2    9 A1    5 B1                                         

 Beta MOs, Restricted
 -- Occupied --                  
-19.194  -0.997  -0.523  -0.378  -0.304
  1 A1    2 A1    1 B1    3 A1    1 B2                                         
 -- Virtual --                   
  0.051   0.129   0.569   0.641   0.946   0.960   1.107   1.191
  4 A1    2 B1    3 B1    5 A1    2 B2    6 A1    4 B1    7 A1                 
  2.590   2.605   2.634   2.916   3.054
  8 A1    1 A2    3 B2    9 A1    5 B1                                         
 --------------------------------------------------------------

          Ground-State Mulliken Net Atomic Charges

     Atom                 Charge (a.u.)
  ----------------------------------------
      1 O                    -0.635603
      2 H                     0.317801
      3 H                     0.317801
  ----------------------------------------
  Sum of atomic charges =     0.000000

 -----------------------------------------------------------------
                    Cartesian Multipole Moments
 -----------------------------------------------------------------
    Charge (ESU x 10^10)
                 0.0000
    Dipole Moment (Debye)
         X       0.0000      Y       0.0000      Z      -2.1881
       Tot       2.1881
    Quadrupole Moments (Debye-Ang)
        XX      -4.2008     XY      -0.0000     YY      -7.1939
        XZ      -0.0000     YZ       0.0000     ZZ      -6.0429
    Octopole Moments (Debye-Ang^2)
       XXX       0.0000    XXY      -0.0000    XYY       0.0000
       YYY      -0.0000    XXZ      -1.2344    XYZ      -0.0000
       YYZ      -0.3407    XZZ       0.0000    YZZ      -0.0000
       ZZZ      -1.2453
    Hexadecapole Moments (Debye-Ang^3)
      XXXX      -6.1573   XXXY      -0.0000   XXYY      -2.1332
      XYYY      -0.0000   YYYY      -5.0728   XXXZ      -0.0000
      XXYZ       0.0000   XYYZ      -0.0000   YYYZ       0.0000
      XXZZ      -1.7487   XYZZ      -0.0000   YYZZ      -1.9467
      XZZZ      -0.0000   YZZZ       0.0000   ZZZZ      -6.2951
 -----------------------------------------------------------------
 Total job time:  3.18s(wall), 13.63s(cpu) 
 Thu Apr 29 16:11:33 2021

        *************************************************************
        *                                                           *
        *  Thank you very much for using Q-Chem.  Have a nice day.  *
        *                                                           *
        *************************************************************


